LAMMPS (23 Jun 2022 - Update 1)
OMP_NUM_THREADS environment is not set. Defaulting to 1 thread. (../comm.cpp:98)
  using 1 OpenMP thread(s) per MPI task
Reading data file ...
  orthogonal box = (-25 -25 -0.606218) to (25 25 110.93785)
  1 by 2 by 4 MPI processor grid
  reading atoms ...
  2928 atoms
  reading velocities ...
  2928 velocities
  read_data CPU = 0.015 seconds
Reading airebo potential file CH.airebo with DATE: 2011-10-25
Reading airebo potential file CH.airebo with DATE: 2011-10-25
Reading airebo potential file CH.airebo with DATE: 2011-10-25
Neighbor list info ...
  update every 1 steps, delay 0 steps, check yes
  max neighbors/atom: 2000, page size: 100000
  master list distance cutoff = 13.2
  ghost atom cutoff = 13.2
  binsize = 6.6, bins = 8 8 17
  6 neighbor lists, perpetual/occasional/extra = 6 0 0
  (1) pair airebo, perpetual, skip from (5)
      attributes: full, newton on, ghost
      pair build: skip/ghost
      stencil: none
      bin: none
  (2) pair airebo, perpetual, skip from (5)
      attributes: full, newton on, ghost
      pair build: skip/ghost
      stencil: none
      bin: none
  (3) pair airebo, perpetual, skip from (5)
      attributes: full, newton on, ghost
      pair build: skip/ghost
      stencil: none
      bin: none
  (4) pair lj/cut, perpetual, skip from (6)
      attributes: half, newton on
      pair build: skip
      stencil: none
      bin: none
  (5) neighbor class addition, perpetual
      attributes: full, newton on, ghost
      pair build: full/bin/ghost
      stencil: full/ghost/bin/3d
      bin: standard
  (6) neighbor class addition, perpetual
      attributes: half, newton on
      pair build: half/bin/atomonly/newton
      stencil: half/bin/3d
      bin: standard
Setting up sd style minimization ...
  Unit style    : metal
  Current step  : 0
Per MPI rank memory allocation (min/avg/max) = 10.25 | 10.25 | 10.25 Mbytes
   Step          Temp          E_pair         E_mol          TotEng         Press     
         0   0             -20344.756      0             -20344.756      27546.587    
        16   0             -21241.397      0             -21241.397      313.77327    
Loop time of 0.171533 on 8 procs for 16 steps with 2928 atoms

97.7% CPU use with 8 MPI tasks x 1 OpenMP threads

Minimization stats:
  Stopping criterion = energy tolerance
  Energy initial, next-to-last, final = 
     -20344.7559264538  -21240.4212891911  -21241.3968525428
  Force two-norm initial, final = 721.12526 10.912003
  Force max component initial, final = 114.90068 1.6104143
  Final line search alpha, max atom move = 0.031085587 0.050060673
  Iterations, force evaluations = 16 28

MPI task timing breakdown:
Section |  min time  |  avg time  |  max time  |%varavg| %total
---------------------------------------------------------------
Pair    | 0.14403    | 0.1523     | 0.1693     |   2.4 | 88.79
Neigh   | 0          | 0          | 0          |   0.0 |  0.00
Comm    | 0.0012218  | 0.017552   | 0.026341   |   6.7 | 10.23
Output  | 0          | 0          | 0          |   0.0 |  0.00
Modify  | 0          | 0          | 0          |   0.0 |  0.00
Other   |            | 0.001682   |            |       |  0.98

Nlocal:            366 ave         378 max         354 min
Histogram: 4 0 0 0 0 0 0 0 0 4
Nghost:           1062 ave        1074 max        1050 min
Histogram: 4 0 0 0 0 0 0 0 0 4
Neighs:              0 ave           0 max           0 min
Histogram: 8 0 0 0 0 0 0 0 0 0

Total # of neighbors = 0
Ave neighs/atom = 0
Neighbor list builds = 0
Dangerous builds = 0
Setting up Verlet run ...
  Unit style    : metal
  Current step  : 16
  Time step     : 0.001
Per MPI rank memory allocation (min/avg/max) = 10.88 | 10.88 | 10.88 Mbytes
   Step          Temp          E_pair         E_mol          TotEng         Press          Volume    
        16   300           -21241.397      0             -21127.894      748.5249       278860.18    
Loop time of 2.5247e-05 on 8 procs for 0 steps with 2928 atoms

20.8% CPU use with 8 MPI tasks x 1 OpenMP threads

MPI task timing breakdown:
Section |  min time  |  avg time  |  max time  |%varavg| %total
---------------------------------------------------------------
Pair    | 0          | 0          | 0          |   0.0 |  0.00
Neigh   | 0          | 0          | 0          |   0.0 |  0.00
Comm    | 0          | 0          | 0          |   0.0 |  0.00
Output  | 0          | 0          | 0          |   0.0 |  0.00
Modify  | 0          | 0          | 0          |   0.0 |  0.00
Other   |            | 2.525e-05  |            |       |100.00

Nlocal:            366 ave         369 max         363 min
Histogram: 4 0 0 0 0 0 0 0 0 4
Nghost:           1062 ave        1065 max        1059 min
Histogram: 4 0 0 0 0 0 0 0 0 4
Neighs:              0 ave           0 max           0 min
Histogram: 8 0 0 0 0 0 0 0 0 0

Total # of neighbors = 0
Ave neighs/atom = 0
Neighbor list builds = 0
Dangerous builds = 0
Setting up Verlet run ...
  Unit style    : metal
  Current step  : 0
  Time step     : 0.001
Per MPI rank memory allocation (min/avg/max) = 13.65 | 13.65 | 13.65 Mbytes
   Step         PotEng         KinEng         TotEng           Lx             Ly             Lz      
         0  -21241.397      113.50333     -21127.894      50             50             111.54407    
       100  -21221.025      103.32465     -21117.7        50.006425      49.987529      111.59984    
       200  -21227.666      113.34631     -21114.32       50.006809      49.962195      111.65562    
       300  -21217.028      103.74578     -21113.282      50.030357      49.950197      111.71139    
       400  -21222.564      117.13333     -21105.431      50.038439      49.92515       111.76716    
       500  -21219.249      119.57992     -21099.669      50.063223      49.912166      111.82293    
       600  -21218.8        121.64849     -21097.152      50.072428      49.900675      111.8787     
       700  -21212.303      117.62756     -21094.676      50.078119      49.90712       111.93448    
       800  -21197.959      108.76822     -21089.191      50.0781        49.926682      111.99025    
       900  -21193.476      112.26506     -21081.211      50.055068      49.938707      112.04602    
      1000  -21210.781      131.47856     -21079.302      50.040224      49.957294      112.10179    
      1100  -21213.838      120.71374     -21093.124      50.012857      49.966903      112.15756    
      1200  -21205.734      106.29969     -21099.435      50.002015      49.984398      112.21334    
      1300  -21199.045      104.17439     -21094.87       49.983888      49.993016      112.26911    
      1400  -21200.435      115.41601     -21085.019      49.973328      50.008431      112.32488    
      1500  -21198.631      117.21929     -21081.412      49.964359      50.024772      112.38065    
      1600  -21192.911      108.21577     -21084.695      49.953015      50.030638      112.43642    
      1700  -21189.552      109.83311     -21079.719      49.953736      50.039152      112.4922     
      1800  -21189.887      118.05807     -21071.828      49.953855      50.033161      112.54797    
      1900  -21192.174      118.99826     -21073.176      49.957838      50.023714      112.60374    
      2000  -21192.203      113.08773     -21079.116      49.963304      50.015038      112.65951    
      2100  -21190.273      108.85785     -21081.415      49.969325      50.009702      112.71528    
      2200  -21189.509      111.36312     -21078.146      49.973596      50.00776       112.77106    
      2300  -21185.785      112.74188     -21073.043      49.97241       50.005847      112.82683    
      2400  -21186.364      115.34473     -21071.019      49.973042      50.008219      112.8826     
      2500  -21185.574      112.27623     -21073.297      49.972156      50.007357      112.93837    
      2600  -21185.532      110.96461     -21074.567      49.970474      50.007312      112.99414    
      2700  -21182.125      110.05173     -21072.073      49.970442      50.007679      113.04992    
      2800  -21181.886      114.06496     -21067.821      49.969799      50.005156      113.10569    
      2900  -21186.462      117.48353     -21068.979      49.968664      50.003064      113.16146    
      3000  -21184.413      112.27503     -21072.138      49.969235      50.001529      113.21723    
      3100  -21182.775      112.41387     -21070.361      49.969097      49.999091      113.27301    
      3200  -21178.934      113.16808     -21065.766      49.970288      49.99737       113.32878    
      3300  -21178.368      115.28388     -21063.084      49.971957      49.994307      113.38455    
      3400  -21178.954      114.47223     -21064.482      49.975094      49.990794      113.44032    
      3500  -21181.095      114.84532     -21066.25       49.978284      49.98698       113.49609    
      3600  -21176.881      111.54543     -21065.335      49.980726      49.984617      113.55187    
      3700  -21175.897      113.86049     -21062.036      49.980054      49.982401      113.60764    
      3800  -21170.875      112.51955     -21058.356      49.978886      49.98131       113.66341    
      3900  -21172.575      116.13066     -21056.445      49.977291      49.979379      113.71918    
      4000  -21172.2        111.53777     -21060.663      49.97664       49.978135      113.77495    
      4100  -21173.611      112.52928     -21061.081      49.978387      49.978419      113.83073    
      4200  -21169.422      110.49815     -21058.924      49.977328      49.975572      113.8865     
      4300  -21166.297      112.22978     -21054.067      49.97883       49.974753      113.94227    
      4400  -21167.553      115.83084     -21051.722      49.97831       49.971623      113.99804    
      4500  -21167.771      114.77369     -21052.997      49.978105      49.969253      114.05381    
      4600  -21168.313      115.38937     -21052.923      49.978962      49.967885      114.10959    
      4700  -21163.148      111.31442     -21051.834      49.978765      49.966494      114.16536    
      4800  -21166.78       116.39468     -21050.385      49.978253      49.964239      114.22113    
      4900  -21165.649      114.09996     -21051.549      49.976898      49.961399      114.2769     
      5000  -21164.277      112.79523     -21051.482      49.976647      49.959977      114.33267    
      5100  -21160.662      111.72002     -21048.942      49.975585      49.958428      114.38845    
      5200  -21158.396      114.48287     -21043.913      49.974803      49.956576      114.44422    
      5300  -21152.664      111.98505     -21040.679      49.974335      49.955261      114.49999    
      5400  -21152.805      114.46446     -21038.341      49.974615      49.955157      114.55576    
      5500  -21152.494      112.99328     -21039.501      49.972339      49.952328      114.61153    
      5600  -21153.114      111.64026     -21041.474      49.970907      49.949864      114.66731    
      5700  -21153.383      112.21673     -21041.167      49.969978      49.948109      114.72308    
      5800  -21154.126      113.49324     -21040.633      49.96723       49.944176      114.77885    
      5900  -21151.1        111.85775     -21039.243      49.967417      49.942805      114.83462    
      6000  -21146.267      113.14328     -21033.123      49.965225      49.938436      114.89039    
      6100  -21144.127      114.95183     -21029.175      49.964847      49.935505      114.94617    
      6200  -21143.279      116.00677     -21027.272      49.96561       49.933186      115.00194    
      6300  -21139.64       113.1012      -21026.538      49.966018      49.930575      115.05771    
      6400  -21140.7        114.90643     -21025.794      49.965006      49.927141      115.11348    
      6500  -21139.994      113.20965     -21026.785      49.966451      49.926583      115.16925    
      6600  -21140.186      113.03652     -21027.149      49.965825      49.922835      115.22503    
      6700  -21137.75       112.99256     -21024.757      49.964665      49.919659      115.2808     
      6800  -21132.392      114.07855     -21018.314      49.962659      49.917266      115.33657    
      6900  -21130.918      114.38621     -21016.532      49.961163      49.914263      115.39234    
      7000  -21130.79       113.96576     -21016.825      49.961793      49.912063      115.44811    
      7100  -21128.001      112.04932     -21015.951      49.961556      49.906674      115.50389    
      7200  -21124.483      110.90699     -21013.576      49.963139      49.904853      115.55966    
      7300  -21123.053      116.65        -21006.403      49.960457      49.901825      115.61543    
      7400  -21121.662      116.67476     -21004.988      49.957196      49.900671      115.6712     
      7500  -21119.619      113.44231     -21006.176      49.953844      49.899153      115.72697    
      7600  -21119.016      111.80466     -21007.212      49.950303      49.895835      115.78275    
      7700  -21116.952      112.12406     -21004.828      49.949434      49.893546      115.83852    
      7800  -21116.377      116.02079     -21000.357      49.948281      49.889697      115.89429    
      7900  -21109.113      113.65376     -20995.46       49.948308      49.886586      115.95006    
      8000  -21106.814      117.88989     -20988.925      49.946844      49.882003      116.00583    
      8100  -21101.573      113.44076     -20988.132      49.946691      49.878897      116.06161    
      8200  -21103.511      114.55813     -20988.953      49.945865      49.874677      116.11738    
      8300  -21104.279      115.63024     -20988.648      49.945375      49.871079      116.17315    
      8400  -21101.4        112.20127     -20989.199      49.943841      49.868564      116.22892    
      8500  -21101.543      113.29136     -20988.252      49.942019      49.86689       116.2847     
      8600  -21098.688      113.7424      -20984.945      49.938167      49.8655        116.34047    
      8700  -21097.05       117.01232     -20980.037      49.933501      49.865458      116.39624    
      8800  -21092.959      116.11221     -20976.846      49.927496      49.863736      116.45201    
      8900  -21092.85       114.34361     -20978.507      49.922814      49.861944      116.50778    
      9000  -21090.108      111.39688     -20978.711      49.919579      49.860024      116.56356    
      9100  -21088.34       113.24146     -20975.099      49.917477      49.856795      116.61933    
      9200  -21084.265      113.83831     -20970.427      49.916227      49.854206      116.6751     
      9300  -21081.66       114.73876     -20966.922      49.913693      49.850111      116.73087    
      9400  -21078.822      112.34818     -20966.474      49.912116      49.847292      116.78664    
      9500  -21079.76       112.00923     -20967.751      49.909635      49.841498      116.84242    
      9600  -21077.242      110.72813     -20966.514      49.908434      49.836808      116.89819    
      9700  -21073.966      113.82059     -20960.145      49.908413      49.831087      116.95396    
      9800  -21068.513      112.70499     -20955.808      49.907812      49.823842      117.00973    
      9900  -21067.103      114.15709     -20952.946      49.908301      49.817984      117.0655     
     10000  -21064.803      113.04659     -20951.757      49.907609      49.811438      117.12128    
     10100  -21063.111      111.27203     -20951.839      49.905876      49.805922      117.17705    
     10200  -21060.592      111.3652      -20949.227      49.903377      49.802184      117.23282    
     10300  -21057.028      114.83876     -20942.189      49.899409      49.799147      117.28859    
     10400  -21053.433      115.10516     -20938.328      49.893854      49.796528      117.34436    
     10500  -21051.438      114.69365     -20936.744      49.887848      49.794377      117.40014    
     10600  -21050.945      114.07428     -20936.871      49.881905      49.792726      117.45591    
     10700  -21049.014      110.71384     -20938.3        49.875439      49.791484      117.51168    
     10800  -21048.4        113.13461     -20935.266      49.868422      49.78898       117.56745    
     10900  -21046.017      115.54242     -20930.475      49.861514      49.786818      117.62322    
     11000  -21039.46       114.2785      -20925.182      49.854919      49.78515       117.679      
     11100  -21036.947      115.19544     -20921.751      49.849171      49.7829        117.73477    
     11200  -21032.677      112.25001     -20920.427      49.844749      49.778621      117.79054    
     11300  -21034.039      113.53772     -20920.501      49.841911      49.771982      117.84631    
     11400  -21031.703      111.11801     -20920.585      49.841018      49.765239      117.90208    
     11500  -21031.037      110.02415     -20921.012      49.839794      49.756513      117.95786    
     11600  -21026.809      112.46535     -20914.343      49.83886       49.747167      118.01363    
     11700  -21021.453      112.94644     -20908.506      49.838865      49.739603      118.0694     
     11800  -21019.529      115.87721     -20903.652      49.837171      49.729883      118.12517    
     11900  -21013.677      114.11825     -20899.559      49.835638      49.720887      118.18094    
     12000  -21008.691      113.8214      -20894.869      49.834089      49.712151      118.23672    
     12100  -21005.991      115.74281     -20890.249      49.831636      49.703763      118.29249    
     12200  -21003.155      113.98176     -20889.174      49.828549      49.696502      118.34826    
     12300  -21002.875      112.91991     -20889.955      49.823778      49.689089      118.40403    
     12400  -20999.734      111.50251     -20888.232      49.819174      49.683252      118.4598     
     12500  -20994.358      111.17802     -20883.18       49.812241      49.676159      118.51558    
     12600  -20992.52       115.34602     -20877.174      49.805699      49.671996      118.57135    
     12700  -20987.572      113.0195      -20874.552      49.797772      49.669292      118.62712    
     12800  -20987.001      113.89095     -20873.11       49.788081      49.664043      118.68289    
     12900  -20983.807      112.33702     -20871.47       49.78073       49.660774      118.73866    
     13000  -20981.588      112.2853      -20869.303      49.772106      49.654702      118.79444    
     13100  -20980.779      112.57336     -20868.206      49.764708      49.648773      118.85021    
     13200  -20977.874      111.43655     -20866.438      49.757842      49.641476      118.90598    
     13300  -20975.48       113.18831     -20862.291      49.75128       49.633043      118.96175    
     13400  -20970.886      115.4914      -20855.394      49.745898      49.624574      119.01752    
     13500  -20965.606      115.24452     -20850.362      49.740407      49.614517      119.0733     
     13600  -20960.486      113.08495     -20847.401      49.737056      49.604908      119.12907    
     13700  -20958.66       112.23801     -20846.422      49.732841      49.592581      119.18484    
     13800  -20959.283      112.10154     -20847.181      49.72889       49.581086      119.24061    
     13900  -20958.295      111.99486     -20846.3        49.724327      49.569936      119.29639    
     14000  -20952.77       111.44177     -20841.328      49.719564      49.558401      119.35216    
     14100  -20948.684      115.67773     -20833.006      49.714447      49.546384      119.40793    
     14200  -20941.954      114.5776      -20827.376      49.708948      49.534538      119.4637     
     14300  -20938.475      115.39192     -20823.083      49.702109      49.522863      119.51947    
     14400  -20932.938      112.00334     -20820.934      49.694057      49.511639      119.57525    
     14500  -20935.302      114.38594     -20820.916      49.685958      49.501063      119.63102    
     14600  -20929.547      110.64558     -20818.902      49.67691       49.489644      119.68679    
     14700  -20925.299      112.42585     -20812.873      49.667008      49.478364      119.74256    
     14800  -20923.474      115.45344     -20808.02       49.658         49.469169      119.79833    
     14900  -20919.194      113.62796     -20805.566      49.646934      49.458031      119.85411    
     15000  -20916.777      112.80583     -20803.971      49.635926      49.449013      119.90988    
     15100  -20912.227      111.16136     -20801.066      49.624034      49.439106      119.96565    
     15200  -20906.725      112.73503     -20793.99       49.611911      49.427449      120.02142    
     15300  -20904.77       116.76293     -20788.007      49.601795      49.415489      120.07719    
     15400  -20901.546      115.44581     -20786.101      49.591835      49.400409      120.13297    
     15500  -20897.618      112.18444     -20785.433      49.58401       49.386264      120.18874    
     15600  -20896.649      114.1392      -20782.51       49.575531      49.369297      120.24451    
     15700  -20890.004      111.63743     -20778.367      49.568336      49.35161       120.30028    
     15800  -20886.052      114.30939     -20771.743      49.561007      49.332846      120.35605    
     15900  -20883.585      116.55578     -20767.029      49.553482      49.314475      120.41183    
     16000  -20878.526      109.60539     -20768.921      49.54493       49.295743      120.4676     
     16100  -20875.305      109.24118     -20766.064      49.536231      49.277895      120.52337    
     16200  -20871.955      113.01776     -20758.937      49.526668      49.259967      120.57914    
     16300  -20869.718      116.17078     -20753.547      49.51511       49.241615      120.63491    
     16400  -20865.974      114.95286     -20751.021      49.503316      49.224743      120.69069    
     16500  -20861.927      111.3694      -20750.558      49.4898        49.207521      120.74646    
     16600  -20858.994      110.47709     -20748.517      49.475452      49.190615      120.80223    
     16700  -20855.549      114.85831     -20740.69       49.461461      49.174536      120.858      
     16800  -20847.792      114.1656      -20733.627      49.447014      49.156656      120.91377    
     16900  -20843.769      113.67776     -20730.091      49.432647      49.138281      120.96955    
     17000  -20841.884      113.10214     -20728.782      49.417586      49.120361      121.02532    
     17100  -20838.263      110.7777      -20727.485      49.401721      49.10159       121.08109    
     17200  -20836.03       112.76708     -20723.263      49.386772      49.083556      121.13686    
     17300  -20829.149      115.15455     -20713.994      49.371377      49.063656      121.19263    
     17400  -20825.882      115.61822     -20710.264      49.357193      49.043441      121.24841    
     17500  -20822.482      113.90474     -20708.578      49.342669      49.021228      121.30418    
     17600  -20818.204      111.51647     -20706.687      49.328529      48.999259      121.35995    
     17700  -20816.868      113.00328     -20703.865      49.314117      48.976876      121.41572    
     17800  -20814.526      111.52866     -20702.998      49.299518      48.953603      121.47149    
     17900  -20809.958      110.3859      -20699.572      49.286151      48.930184      121.52727    
     18000  -20802.4        111.31529     -20691.084      49.27291       48.905668      121.58304    
     18100  -20801.298      115.98101     -20685.317      49.259699      48.88121       121.63881    
     18200  -20793.933      112.88751     -20681.045      49.246107      48.856223      121.69458    
     18300  -20788.694      111.67509     -20677.019      49.231147      48.831048      121.75035    
     18400  -20787.239      114.48956     -20672.749      49.215986      48.807095      121.80613    
     18500  -20784.174      114.80019     -20669.374      49.198668      48.782197      121.8619     
     18600  -20778.345      112.65867     -20665.687      49.181498      48.759197      121.91767    
     18700  -20771.276      110.2595      -20661.016      49.163891      48.736797      121.97344    
     18800  -20772.254      117.43268     -20654.821      49.145752      48.713621      122.02921    
     18900  -20765.947      115.05899     -20650.888      49.128087      48.691256      122.08499    
     19000  -20762.006      112.24325     -20649.763      49.109156      48.668059      122.14076    
     19100  -20759.459      111.47409     -20647.985      49.09128       48.646782      122.19653    
     19200  -20757.193      115.10862     -20642.085      49.071637      48.623579      122.2523     
     19300  -20748.636      115.00063     -20633.636      49.052623      48.600642      122.30807    
     19400  -20743.825      114.64652     -20629.179      49.035245      48.578171      122.36385    
     19500  -20741.168      114.71414     -20626.454      49.018057      48.552764      122.41962    
     19600  -20735.497      110.95692     -20624.54       49.00344       48.527583      122.47539    
     19700  -20733.092      111.96298     -20621.129      48.989456      48.500431      122.53116    
     19800  -20728.04       115.04384     -20612.996      48.975418      48.473051      122.58694    
     19900  -20721.107      114.60734     -20606.499      48.961733      48.447845      122.64271    
     20000  -20716.415      112.24348     -20604.172      48.946947      48.422269      122.69848    
     20100  -20715.8        113.8926      -20601.908      48.932372      48.3975        122.75425    
     20200  -20711.99       114.28405     -20597.706      48.917399      48.37355       122.81002    
     20300  -20704.907      114.7041      -20590.203      48.901369      48.350113      122.8658     
     20400  -20700.416      116.58394     -20583.832      48.884647      48.327818      122.92157    
     20500  -20696.233      114.8057      -20581.427      48.866877      48.305608      122.97734    
     20600  -20695.317      114.56366     -20580.754      48.849072      48.285079      123.03311    
     20700  -20688.819      111.63053     -20577.188      48.83075       48.265026      123.08888    
     20800  -20683.356      111.73534     -20571.621      48.812139      48.244968      123.14466    
     20900  -20677.111      112.49502     -20564.616      48.794973      48.226269      123.20043    
     21000  -20671.89       114.9876      -20556.902      48.777071      48.205009      123.2562     
     21100  -20666.311      116.49469     -20549.816      48.761912      48.185982      123.31197    
     21200  -20664.485      116.41195     -20548.073      48.74639       48.164981      123.36774    
     21300  -20659.374      111.66027     -20547.713      48.732698      48.144471      123.42352    
     21400  -20658.191      112.91509     -20545.276      48.720943      48.124293      123.47929    
     21500  -20652.481      111.5143      -20540.966      48.708226      48.101163      123.53506    
     21600  -20647.874      114.69119     -20533.182      48.697127      48.080886      123.59083    
     21700  -20640.593      114.24485     -20526.348      48.684262      48.058831      123.6466     
     21800  -20636.198      112.68654     -20523.511      48.671171      48.038083      123.70238    
     21900  -20633.494      112.72643     -20520.768      48.658933      48.019651      123.75815    
     22000  -20629.324      112.70604     -20516.618      48.64471       47.999055      123.81392    
     22100  -20626.182      115.45674     -20510.726      48.633543      47.982424      123.86969    
     22200  -20618.865      115.67996     -20503.185      48.620521      47.96372       123.92546    
     22300  -20613.238      117.32735     -20495.911      48.608249      47.946269      123.98124    
     22400  -20607.547      115.4634      -20492.084      48.596793      47.930885      124.03701    
     22500  -20606.8        114.57046     -20492.23       48.583495      47.91347       124.09278    
     22600  -20605.162      115.70182     -20489.461      48.571822      47.899604      124.14855    
     22700  -20597.6        112.58726     -20485.013      48.558053      47.883944      124.20432    
     22800  -20593.936      115.49048     -20478.446      48.545527      47.869763      124.2601     
     22900  -20585.831      115.78038     -20470.05       48.534028      47.855686      124.31587    
     23000  -20581.488      117.35138     -20464.136      48.522111      47.839291      124.37164    
     23100  -20575.259      112.9167      -20462.342      48.513525      47.825683      124.42741    
     23200  -20571.36       112.97757     -20458.382      48.502914      47.808128      124.48318    
     23300  -20567.335      113.56938     -20453.766      48.495116      47.793441      124.53896    
     23400  -20563.523      113.27253     -20450.25       48.485934      47.777098      124.59473    
     23500  -20560.186      112.02691     -20448.159      48.477083      47.761821      124.6505     
     23600  -20553.188      108.97289     -20444.215      48.468664      47.749405      124.70627    
     23700  -20548.888      114.39892     -20434.489      48.457619      47.734968      124.76204    
     23800  -20545.04       117.08521     -20427.955      48.448373      47.723878      124.81782    
     23900  -20537.242      113.10965     -20424.132      48.43749       47.71079       124.87359    
     24000  -20534.259      112.4355      -20421.823      48.428005      47.698659      124.92936    
     24100  -20530.489      112.19201     -20418.297      48.419582      47.68685       124.98513    
     24200  -20525.014      112.62835     -20412.385      48.411276      47.673532      125.0409     
     24300  -20516.893      113.33677     -20403.556      48.404508      47.66156       125.09668    
     24400  -20514.004      116.91906     -20397.085      48.397192      47.648601      125.15245    
     24500  -20506.736      113.81816     -20392.918      48.389369      47.635814      125.20822    
     24600  -20504.717      112.32159     -20392.395      48.38132       47.625075      125.26399    
     24700  -20500.682      112.01961     -20388.662      48.371811      47.614128      125.31976    
     24800  -20493.747      111.50827     -20382.239      48.36294       47.604837      125.37554    
     24900  -20487.95       113.3291      -20374.621      48.353647      47.594005      125.43131    
     25000  -20483.475      114.83913     -20368.636      48.345403      47.584409      125.48708    
     25100  -20479.33       114.80977     -20364.52       48.33743       47.574586      125.54285    
     25200  -20472.903      112.57795     -20360.325      48.329005      47.562956      125.59863    
     25300  -20467.974      112.50839     -20355.466      48.322597      47.553508      125.6544     
     25400  -20461.06       113.77793     -20347.282      48.315657      47.54278       125.71017    
     25500  -20453.856      114.02621     -20339.83       48.309429      47.532279      125.76594    
     25600  -20451.164      113.98583     -20337.179      48.303884      47.522558      125.82171    
     25700  -20448.222      113.16019     -20335.062      48.296666      47.511565      125.87749    
     25800  -20443.602      112.8054      -20330.797      48.291166      47.503199      125.93326    
     25900  -20437.992      112.82922     -20325.163      48.283637      47.492339      125.98903    
     26000  -20431.197      113.86266     -20317.334      48.276702      47.482242      126.0448     
     26100  -20425.881      118.14048     -20307.741      48.270614      47.473979      126.10057    
     26200  -20418.394      113.66981     -20304.724      48.26239       47.463282      126.15635    
     26300  -20415.299      112.49541     -20302.804      48.255955      47.454853      126.21212    
     26400  -20412.338      112.84127     -20299.497      48.249181      47.446513      126.26789    
     26500  -20407.148      113.89726     -20293.25       48.241004      47.436781      126.32366    
     26600  -20398.426      114.1076      -20284.319      48.235005      47.430719      126.37943    
     26700  -20395.399      118.29479     -20277.104      48.226364      47.4215        126.43521    
     26800  -20388.367      115.05278     -20273.314      48.219169      47.413894      126.49098    
     26900  -20385.596      114.8475      -20270.748      48.212951      47.406256      126.54675    
     27000  -20380.593      112.84205     -20267.751      48.205835      47.396372      126.60252    
     27100  -20375.639      113.26842     -20262.37       48.200931      47.388612      126.65829    
     27200  -20366.226      111.64547     -20254.581      48.19436       47.378831      126.71407    
     27300  -20360.42       115.59971     -20244.82       48.189195      47.370652      126.76984    
     27400  -20355.534      114.95669     -20240.577      48.183621      47.36193       126.82561    
     27500  -20353.243      115.46976     -20237.773      48.177133      47.351869      126.88138    
     27600  -20347.256      113.19749     -20234.059      48.172328      47.34433       126.93715    
     27700  -20343.164      113.66706     -20229.497      48.165879      47.334176      126.99293    
     27800  -20337.437      113.41044     -20224.027      48.160641      47.325786      127.0487     
     27900  -20331.688      116.7025      -20214.986      48.155024      47.317298      127.10447    
     28000  -20325.449      117.42612     -20208.023      48.148909      47.308841      127.16024    
     28100  -20319.53       113.64338     -20205.886      48.142955      47.301827      127.21601    
     28200  -20316.681      113.91933     -20202.762      48.135316      47.293774      127.27179    
     28300  -20310.585      112.85208     -20197.733      48.12818       47.287552      127.32756    
     28400  -20304.981      112.98042     -20192.001      48.121067      47.281047      127.38333    
     28500  -20298.035      114.28184     -20183.753      48.112955      47.272918      127.4391     
     28600  -20289.606      114.74285     -20174.863      48.106967      47.267261      127.49487    
     28700  -20287.188      115.57949     -20171.608      48.099265      47.258382      127.55065    
     28800  -20282.303      113.49175     -20168.811      48.09219       47.249914      127.60642    
     28900  -20277.191      112.55684     -20164.634      48.086961      47.243387      127.66219    
     29000  -20271.147      111.94581     -20159.202      48.079842      47.233012      127.71796    
     29100  -20263.664      111.52759     -20152.137      48.076064      47.226111      127.77373    
     29200  -20258.676      115.77969     -20142.897      48.071105      47.216048      127.82951    
     29300  -20254.209      115.78081     -20138.428      48.066533      47.206019      127.88528    
     29400  -20250.793      114.07817     -20136.715      48.063823      47.198244      127.94105    
     29500  -20244.987      113.29486     -20131.692      48.057609      47.186556      127.99682    
     29600  -20237.872      112.46371     -20125.408      48.053737      47.179282      128.05259    
     29700  -20232.451      115.36567     -20117.085      48.047074      47.170942      128.10837    
     29800  -20223.939      114.70429     -20109.235      48.039346      47.163402      128.16414    
     29900  -20221.067      115.11231     -20105.955      48.032783      47.15909       128.21991    
     30000  -20217.433      112.54277     -20104.89       48.023251      47.151286      128.27568    
     30100  -20212.503      112.90469     -20099.599      48.015973      47.146131      128.33145    
     30200  -20206.608      115.01571     -20091.592      48.007765      47.13927       128.38723    
     30300  -20199.569      115.73149     -20083.838      47.999619      47.131335      128.443      
     30400  -20191.922      114.35312     -20077.569      47.994158      47.125122      128.49877    
     30500  -20188.209      113.18367     -20075.025      47.987696      47.115808      128.55454    
     30600  -20183.351      111.05639     -20072.295      47.983504      47.107969      128.61032    
     30700  -20176.334      111.42531     -20064.909      47.978837      47.098643      128.66609    
     30800  -20171.39       115.05415     -20056.335      47.97349       47.088468      128.72186    
     30900  -20162.161      111.91374     -20050.248      47.969296      47.080113      128.77763    
     31000  -20157.303      112.37063     -20044.932      47.963124      47.069582      128.8334     
     31100  -20154.079      113.5337      -20040.545      47.958426      47.061431      128.88918    
     31200  -20150.17       110.20252     -20039.967      47.95295       47.05176       128.94495    
     31300  -20145.286      110.37106     -20034.915      47.947314      47.042497      129.00072    
     31400  -20136.642      111.51768     -20025.125      47.942472      47.035513      129.05649    
     31500  -20131.042      114.06347     -20016.979      47.935375      47.026647      129.11226    
     31600  -20122.019      112.69422     -20009.325      47.928708      47.020219      129.16804    
     31700  -20118.416      115.50316     -20002.913      47.921022      47.013703      129.22381    
     31800  -20114.573      114.1214      -20000.452      47.912119      47.0057        129.27958    
     31900  -20111.352      113.62041     -19997.732      47.905435      46.999858      129.33535    
     32000  -20103.715      112.59113     -19991.124      47.897892      46.991296      129.39112    
     32100  -20096.403      113.32619     -19983.076      47.891218      46.983124      129.4469     
     32200  -20090.423      114.30009     -19976.123      47.885423      46.975039      129.50267    
     32300  -20082.841      112.75281     -19970.088      47.878581      46.964599      129.55844    
     32400  -20079.424      114.76176     -19964.663      47.873553      46.956257      129.61421    
     32500  -20073.173      113.3973      -19959.776      47.867829      46.946855      129.66998    
     32600  -20067.527      112.3031      -19955.224      47.862253      46.937277      129.72576    
     32700  -20060.42       111.19292     -19949.227      47.857634      46.92925       129.78153    
     32800  -20053.857      113.27927     -19940.577      47.851385      46.919034      129.8373     
     32900  -20044.904      111.84261     -19933.062      47.846443      46.911193      129.89307    
     33000  -20039.568      112.33701     -19927.231      47.839651      46.901871      129.94884    
     33100  -20038.699      114.6055      -19924.093      47.832783      46.892548      130.00462    
     33200  -20035.089      113.79523     -19921.294      47.826082      46.884376      130.06039    
     33300  -20026.688      111.91202     -19914.776      47.818711      46.875501      130.11616    
     33400  -20019.755      114.8541      -19904.901      47.812056      46.867743      130.17193    
     33500  -20010.875      112.75373     -19898.121      47.805314      46.859904      130.2277     
     33600  -20007.976      115.08571     -19892.89       47.798106      46.850998      130.28348    
     33700  -20002.167      114.24409     -19887.923      47.791525      46.842122      130.33925    
     33800  -19999.767      115.25233     -19884.514      47.785049      46.833335      130.39502    
     33900  -19989.643      109.09276     -19880.55       47.778007      46.823465      130.45079    
     34000  -19983.072      111.8679      -19871.204      47.771684      46.814917      130.50656    
     34100  -19975.938      113.50372     -19862.434      47.76498       46.805962      130.56234    
     34200  -19969.58       112.87674     -19856.703      47.758126      46.796959      130.61811    
     34300  -19965.194      112.34557     -19852.848      47.751718      46.787937      130.67388    
     34400  -19961.495      112.59981     -19848.895      47.745083      46.778399      130.72965    
     34500  -19954          110.99765     -19843.002      47.739322      46.769143      130.78542    
     34600  -19947.602      115.26907     -19832.333      47.733166      46.75828       130.8412     
     34700  -19940.631      116.00264     -19824.629      47.728069      46.748525      130.89697    
     34800  -19935.172      114.7149      -19820.457      47.722409      46.738695      130.95274    
     34900  -19928.876      111.45929     -19817.417      47.715879      46.729201      131.00851    
     35000  -19922.674      111.0215      -19811.652      47.709101      46.720579      131.06428    
     35100  -19915.339      113.4049      -19801.934      47.700928      46.711362      131.12006    
     35200  -19907.647      113.50043     -19794.147      47.693116      46.702591      131.17583    
     35300  -19904.232      114.51787     -19789.714      47.68528       46.693306      131.2316     
     35400  -19899.598      113.03511     -19786.563      47.678214      46.683703      131.28737    
     35500  -19892.591      111.50041     -19781.091      47.671556      46.674175      131.34314    
     35600  -19885.159      113.37995     -19771.779      47.665016      46.664637      131.39892    
     35700  -19877.485      114.14541     -19763.34       47.658204      46.655068      131.45469    
     35800  -19874.714      116.61222     -19758.102      47.651723      46.645342      131.51046    
     35900  -19867.755      113.58951     -19754.165      47.645127      46.635243      131.56623    
     36000  -19863.836      114.09696     -19749.739      47.638835      46.625368      131.622      
     36100  -19856.022      112.53248     -19743.489      47.631884      46.615417      131.67778    
     36200  -19848.898      113.65477     -19735.244      47.624306      46.605411      131.73355    
     36300  -19839.028      114.21055     -19724.818      47.61746       46.596617      131.78932    
     36400  -19835.468      120.91118     -19714.557      47.609509      46.58639       131.84509    
     36500  -19830.841      118.37506     -19712.466      47.602515      46.576601      131.90087    
     36600  -19823.196      112.96401     -19710.232      47.595779      46.566743      131.95664    
     36700  -19820.614      114.51468     -19706.099      47.587699      46.555898      132.01241    
     36800  -19813.241      112.53723     -19700.704      47.58084       46.546954      132.06818    
     36900  -19805.527      113.64224     -19691.885      47.572857      46.536638      132.12395    
     37000  -19799.548      116.62023     -19682.928      47.565553      46.526909      132.17973    
     37100  -19791.803      113.88459     -19677.918      47.558939      46.517156      132.2355     
     37200  -19787.491      113.7071      -19673.784      47.551982      46.506382      132.29127    
     37300  -19781.584      113.20905     -19668.375      47.546115      46.496163      132.34704    
     37400  -19774.826      112.40165     -19662.424      47.539344      46.485083      132.40281    
     37500  -19768.787      113.79643     -19654.99       47.532681      46.473708      132.45859    
     37600  -19761.275      116.48719     -19644.788      47.526169      46.462954      132.51436    
     37700  -19755.508      117.76048     -19637.747      47.518544      46.451287      132.57013    
     37800  -19749.303      113.86438     -19635.439      47.512195      46.440871      132.6259     
     37900  -19742.891      111.83925     -19631.052      47.505823      46.430281      132.68167    
     38000  -19738.093      113.28703     -19624.806      47.49797       46.417816      132.73745    
     38100  -19731.5        113.58636     -19617.913      47.492175      46.407609      132.79322    
     38200  -19724.81       114.02268     -19610.788      47.48544       46.396157      132.84899    
     38300  -19717.685      114.39764     -19603.287      47.478726      46.384669      132.90476    
     38400  -19711.084      114.60606     -19596.478      47.472814      46.373968      132.96053    
     38500  -19706.011      114.05913     -19591.952      47.46526       46.361896      133.01631    
     38600  -19701.572      112.3934      -19589.179      47.459238      46.351277      133.07208    
     38700  -19695.619      112.26649     -19583.352      47.452258      46.339931      133.12785    
     38800  -19686.332      112.58054     -19573.751      47.444692      46.328352      133.18362    
     38900  -19679.857      113.9145      -19565.943      47.437768      46.31797       133.23939    
     39000  -19670.736      110.44512     -19560.291      47.429557      46.306482      133.29517    
     39100  -19668.063      112.79657     -19555.266      47.42206       46.29517       133.35094    
     39200  -19662.388      110.88894     -19551.499      47.41543       46.284287      133.40671    
     39300  -19656.549      109.24801     -19547.301      47.407105      46.272603      133.46248    
     39400  -19650.66       112.84535     -19537.815      47.399863      46.262496      133.51825    
     39500  -19641.15       113.08737     -19528.062      47.392557      46.252569      133.57403    
     39600  -19634.054      112.75162     -19521.303      47.383772      46.240996      133.6298     
     39700  -19629.329      113.15713     -19516.172      47.377199      46.231113      133.68557    
     39800  -19623.253      110.25112     -19513.002      47.368692      46.219094      133.74134    
     39900  -19620.103      111.6742      -19508.429      47.360698      46.207439      133.79711    
     40000  -19610.999      112.20021     -19498.798      47.354258      46.197725      133.85289    
     40100  -19602.211      113.46508     -19488.746      47.344414      46.185257      133.90866    
     40200  -19598.662      116.08522     -19482.577      47.337289      46.175155      133.96443    
     40300  -19591.139      112.42995     -19478.709      47.329134      46.163841      134.0202     
     40400  -19587.645      112.94174     -19474.704      47.32017       46.15158       134.07597    
     40500  -19579.481      110.33364     -19469.147      47.313917      46.141512      134.13175    
     40600  -19573.232      114.14114     -19459.091      47.305354      46.129307      134.18752    
     40700  -19561.454      111.53702     -19449.917      47.298606      46.118529      134.24329    
     40800  -19558.609      114.58679     -19444.022      47.291418      46.108037      134.29906    
     40900  -19551.574      110.53517     -19441.039      47.281968      46.096507      134.35483    
     41000  -19550.425      113.8444      -19436.58       47.274128      46.086617      134.41061    
     41100  -19542.684      113.30961     -19429.374      47.264804      46.075265      134.46638    
     41200  -19535.3        113.68999     -19421.61       47.256161      46.06369       134.52215    
     41300  -19527.394      112.83702     -19414.557      47.249115      46.052551      134.57792    
     41400  -19521.708      113.8318      -19407.876      47.240724      46.040068      134.63369    
     41500  -19515.765      114.00926     -19401.756      47.233565      46.028542      134.68947    
     41600  -19509.881      112.82754     -19397.054      47.226469      46.017404      134.74524    
     41700  -19503.076      110.64406     -19392.432      47.217649      46.005506      134.80101    
     41800  -19498.326      114.25168     -19384.074      47.210396      45.995547      134.85678    
     41900  -19488.932      114.75181     -19374.18       47.201089      45.984325      134.91256    
     42000  -19481.721      114.1288      -19367.592      47.192328      45.973569      134.96833    
     42100  -19476.188      113.02046     -19363.167      47.18432       45.96331       135.0241     
     42200  -19471.785      112.151       -19359.634      47.174995      45.951588      135.07987    
     42300  -19464.81       107.45269     -19357.357      47.167345      45.941335      135.13564    
     42400  -19461.177      110.64489     -19350.532      47.158092      45.929663      135.19142    
     42500  -19451.353      112.45375     -19338.899      47.149648      45.918599      135.24719    
     42600  -19443.323      113.15232     -19330.171      47.141797      45.907958      135.30296    
     42700  -19438.823      116.97637     -19321.847      47.132613      45.896281      135.35873    
     42800  -19429.217      113.60936     -19315.607      47.12558       45.885801      135.4145     
     42900  -19426.744      114.38823     -19312.356      47.11706       45.874197      135.47028    
     43000  -19417.452      109.47202     -19307.98       47.108258      45.862366      135.52605    
     43100  -19413.307      113.21232     -19300.095      47.101996      45.852185      135.58182    
     43200  -19404.537      115.63496     -19288.902      47.092879      45.839994      135.63759    
     43300  -19394.787      112.29031     -19282.496      47.084982      45.828391      135.69336    
     43400  -19391.234      112.72572     -19278.508      47.077545      45.817202      135.74914    
     43500  -19386.521      112.26284     -19274.258      47.067249      45.804763      135.80491    
     43600  -19381.393      113.65341     -19267.74       47.059928      45.795353      135.86068    
     43700  -19370.449      113.24603     -19257.203      47.049748      45.784735      135.91645    
     43800  -19364.216      115.31467     -19248.901      47.039642      45.77451       135.97222    
     43900  -19357.639      113.79576     -19243.843      47.03217       45.7659        136.028      
     44000  -19352.819      113.60798     -19239.211      47.021529      45.754476      136.08377    
     44100  -19347.294      113.3668      -19233.927      47.013849      45.744334      136.13954    
     44200  -19340.897      113.47517     -19227.422      47.006135      45.733425      136.19531    
     44300  -19332.601      115.35137     -19217.25       46.996934      45.721316      136.25108    
     44400  -19324.099      114.76921     -19209.33       46.990464      45.71106       136.30686    
     44500  -19320.485      114.5648      -19205.921      46.981215      45.699297      136.36263    
     44600  -19313.922      111.75786     -19202.164      46.973149      45.688197      136.4184     
     44700  -19305.308      110.09295     -19195.215      46.966013      45.677621      136.47417    
     44800  -19299.15       113.1234      -19186.027      46.956673      45.665753      136.52994    
     44900  -19292.246      115.71076     -19176.536      46.94886       45.655254      136.58572    
     45000  -19281.423      115.11245     -19166.311      46.940207      45.644327      136.64149    
     45100  -19276.114      115.02798     -19161.086      46.931952      45.633768      136.69726    
     45200  -19274.461      114.80278     -19159.658      46.924022      45.623665      136.75303    
     45300  -19267.571      112.09004     -19155.481      46.914739      45.613144      136.8088     
     45400  -19262.787      113.02529     -19149.762      46.90598       45.603262      136.86458    
     45500  -19256.621      114.49067     -19142.13       46.896677      45.593314      136.92035    
     45600  -19248.242      115.52656     -19132.715      46.886993      45.583118      136.97612    
     45700  -19239.35       115.34122     -19124.009      46.87794       45.573628      137.03189    
     45800  -19235.261      115.23831     -19120.023      46.868687      45.563669      137.08766    
     45900  -19229.777      112.37402     -19117.403      46.860239      45.554238      137.14344    
     46000  -19223.579      113.66655     -19109.913      46.851667      45.54458       137.19921    
     46100  -19215.054      114.41638     -19100.637      46.842573      45.534942      137.25498    
     46200  -19206.956      114.87792     -19092.078      46.833517      45.525433      137.31075    
     46300  -19199.841      113.46671     -19086.374      46.824561      45.515682      137.36652    
     46400  -19195.049      109.861       -19085.188      46.815328      45.505114      137.4223     
     46500  -19191.069      112.77997     -19078.289      46.807331      45.49462       137.47807    
     46600  -19183.004      113.98294     -19069.021      46.799954      45.483904      137.53384    
     46700  -19174.211      114.06297     -19060.148      46.792046      45.472167      137.58961    
     46800  -19167.411      113.78532     -19053.626      46.785844      45.461291      137.64538    
     46900  -19161.168      111.10589     -19050.062      46.778501      45.4504        137.70116    
     47000  -19158.948      112.01051     -19046.937      46.770011      45.439744      137.75693    
     47100  -19149.726      111.31621     -19038.41       46.762323      45.430571      137.8127     
     47200  -19142.879      113.75618     -19029.123      46.752658      45.421172      137.86847    
     47300  -19135.318      113.87347     -19021.445      46.742955      45.41232       137.92425    
     47400  -19128.68       113.60801     -19015.072      46.734132      45.404379      137.98002    
     47500  -19125.176      114.08326     -19011.093      46.723969      45.39538       138.03579    
     47600  -19121.439      113.58466     -19007.854      46.715438      45.387071      138.09156    
     47700  -19111.238      112.27341     -18998.964      46.706534      45.378229      138.14733    
     47800  -19104.327      115.23809     -18989.089      46.696684      45.368595      138.20311    
     47900  -19095.767      114.43376     -18981.333      46.688311      45.359659      138.25888    
     48000  -19086.955      112.08536     -18974.87       46.679408      45.350211      138.31465    
     48100  -19083.734      112.71544     -18971.019      46.670656      45.340552      138.37042    
     48200  -19078.401      111.1605      -18967.24       46.663456      45.331514      138.42619    
     48300  -19071.536      112.51073     -18959.026      46.655964      45.32184       138.48197    
     48400  -19062.792      113.44221     -18949.35       46.648584      45.312083      138.53774    
     48500  -19057.154      115.034       -18942.12       46.64184       45.302537      138.59351    
     48600  -19050          114.22085     -18935.779      46.63371       45.292534      138.64928    
     48700  -19043.075      113.08453     -18929.991      46.62506       45.283135      138.70505    
     48800  -19037.461      112.82642     -18924.634      46.616312      45.274049      138.76083    
     48900  -19030.56       111.28064     -18919.28       46.606931      45.264867      138.8166     
     49000  -19024.293      114.10008     -18910.193      46.598722      45.256142      138.87237    
     49100  -19016.154      116.10552     -18900.049      46.590437      45.247451      138.92814    
     49200  -19008.592      115.21211     -18893.38       46.581536      45.238367      138.98391    
     49300  -19003.525      113.84384     -18889.681      46.573867      45.23068       139.03969    
     49400  -18996.876      111.37964     -18885.496      46.564766      45.222445      139.09546    
     49500  -18989.709      112.00481     -18877.704      46.555749      45.214504      139.15123    
     49600  -18983.764      114.80243     -18868.962      46.548011      45.207352      139.207      
     49700  -18975.867      115.62798     -18860.239      46.538495      45.198885      139.26277    
     49800  -18965.481      112.55169     -18852.929      46.530559      45.191025      139.31855    
     49900  -18961.812      111.65616     -18850.155      46.523073      45.182499      139.37432    
     50000  -18957.626      112.50826     -18845.118      46.514745      45.172472      139.43009    
     50100  -18949.07       112.09376     -18836.976      46.508217      45.163456      139.48586    
     50200  -18938.764      112.23058     -18826.533      46.500068      45.153669      139.54163    
     50300  -18933.561      116.01206     -18817.549      46.492429      45.144514      139.59741    
     50400  -18927.383      115.21822     -18812.165      46.485512      45.136262      139.65318    
     50500  -18924.007      117.20258     -18806.804      46.476873      45.127312      139.70895    
     50600  -18914.249      112.65567     -18801.593      46.469628      45.119708      139.76472    
     50700  -18909.012      112.68527     -18796.327      46.461443      45.111935      139.82049    
     50800  -18904.042      113.32454     -18790.718      46.452804      45.104506      139.87627    
     50900  -18897.097      112.51191     -18784.585      46.445005      45.097851      139.93204    
     51000  -18888.177      113.5004      -18774.677      46.435744      45.090659      139.98781    
     51100  -18880.258      115.349       -18764.909      46.427152      45.083689      140.04358    
     51200  -18873.746      114.79958     -18758.947      46.418683      45.076655      140.09935    
     51300  -18870.405      115.01121     -18755.394      46.409382      45.06829       140.15513    
     51400  -18861.328      111.72519     -18749.603      46.402132      45.060899      140.2109     
     51500  -18854.426      112.71528     -18741.711      46.394339      45.052695      140.26667    
     51600  -18847.48       114.38776     -18733.092      46.386476      45.044214      140.32244    
     51700  -18839.778      115.7032      -18724.075      46.379937      45.036709      140.37821    
     51800  -18832.147      117.69046     -18714.456      46.37195       45.028262      140.43399    
     51900  -18823          115.89747     -18707.103      46.364814      45.020402      140.48976    
     52000  -18819.537      114.39997     -18705.137      46.358256      45.012806      140.54553    
     52100  -18814.803      113.86412     -18700.939      46.350677      45.004398      140.6013     
     52200  -18807.958      112.95926     -18694.999      46.344185      44.996946      140.65707    
     52300  -18800.892      113.44167     -18687.45       46.337713      44.989948      140.71285    
     52400  -18792.182      113.96972     -18678.212      46.329405      44.98267       140.76862    
     52500  -18783.374      114.75822     -18668.615      46.321759      44.976036      140.82439    
     52600  -18779.274      114.99311     -18664.281      46.313069      44.969203      140.88016    
     52700  -18771.305      110.44596     -18660.859      46.304002      44.962153      140.93593    
     52800  -18766.051      112.00498     -18654.046      46.296019      44.956093      140.99171    
     52900  -18756.997      110.73877     -18646.258      46.286725      44.94883       141.04748    
     53000  -18751.489      115.12668     -18636.362      46.279354      44.942077      141.10325    
     53100  -18740.003      112.36782     -18627.636      46.272676      44.935377      141.15902    
     53200  -18740.955      115.85585     -18625.099      46.264518      44.927627      141.2148     
     53300  -18732.014      112.12134     -18619.893      46.257707      44.92126       141.27057    
     53400  -18726.399      113.47707     -18612.922      46.250297      44.91455       141.32634    
     53500  -18717.635      112.6544      -18604.981      46.242011      44.907352      141.38211    
     53600  -18712.344      115.58539     -18596.758      46.235139      44.901339      141.43788    
     53700  -18704.446      114.38534     -18590.061      46.226746      44.894397      141.49366    
     53800  -18698.362      113.11665     -18585.246      46.21884       44.888379      141.54943    
     53900  -18692.874      112.0619      -18580.812      46.211192      44.882353      141.6052     
     54000  -18684.075      110.20139     -18573.873      46.203027      44.87489       141.66097    
     54100  -18676.882      114.73213     -18562.149      46.19701       44.867904      141.71674    
     54200  -18667.107      113.70992     -18553.397      46.189991      44.860322      141.77252    
     54300  -18663.974      115.98523     -18547.989      46.182578      44.853248      141.82829    
     54400  -18657.441      113.75986     -18543.682      46.175401      44.847404      141.88406    
     54500  -18651.335      113.58411     -18537.751      46.167043      44.840928      141.93983    
     54600  -18643.594      113.55485     -18530.039      46.159225      44.835726      141.9956     
     54700  -18638.805      115.94291     -18522.862      46.151249      44.830219      142.05138    
     54800  -18631.891      113.44631     -18518.445      46.14286       44.823909      142.10715    
     54900  -18625.622      112.51715     -18513.105      46.136158      44.818254      142.16292    
     55000  -18616.548      112.36622     -18504.181      46.127856      44.811122      142.21869    
     55100  -18608.599      115.00874     -18493.59       46.120608      44.804854      142.27446    
     55200  -18600.08       113.8729      -18486.207      46.113342      44.79875       142.33024    
     55300  -18595.472      113.8691      -18481.603      46.105199      44.792493      142.38601    
     55400  -18590.29       113.47902     -18476.811      46.098633      44.788075      142.44178    
     55500  -18584.218      115.13029     -18469.088      46.090027      44.782076      142.49755    
     55600  -18572.858      112.48988     -18460.368      46.08246       44.776611      142.55332    
     55700  -18567.036      114.80794     -18452.228      46.076032      44.771267      142.6091     
     55800  -18559.408      111.90516     -18447.503      46.06795       44.763953      142.66487    
     55900  -18554.243      110.97166     -18443.272      46.061383      44.758125      142.72064    
     56000  -18546.996      111.48612     -18435.509      46.054182      44.751948      142.77641    
     56100  -18537.392      110.9551      -18426.436      46.046295      44.745596      142.83218    
     56200  -18529.479      111.34748     -18418.131      46.039493      44.740982      142.88796    
     56300  -18525.138      114.20546     -18410.932      46.031012      44.734641      142.94373    
     56400  -18517.382      113.07223     -18404.31       46.024116      44.729386      142.9995     
     56500  -18513.898      115.25242     -18398.646      46.017482      44.723844      143.05527    
     56600  -18507.56       114.04667     -18393.513      46.009978      44.717115      143.11104    
     56700  -18499.788      112.80293     -18386.985      46.003641      44.711833      143.16682    
     56800  -18491.098      112.85801     -18378.24       45.996095      44.705786      143.22259    
     56900  -18481.252      114.12889     -18367.123      45.988193      44.700238      143.27836    
     57000  -18477.334      117.73134     -18359.602      45.981259      44.696029      143.33413    
     57100  -18472.517      116.19802     -18356.319      45.973137      44.68981       143.3899     
     57200  -18463.41       112.77012     -18350.64       45.966267      44.684096      143.44568    
     57300  -18453.731      110.4061      -18343.325      45.959907      44.678207      143.50145    
     57400  -18449.175      113.02568     -18336.149      45.952671      44.671577      143.55722    
     57500  -18442.823      113.57014     -18329.253      45.94662       44.666237      143.61299    
     57600  -18436.234      113.03404     -18323.199      45.939976      44.660198      143.66876    
     57700  -18428.035      110.69304     -18317.342      45.933395      44.654191      143.72454    
     57800  -18422.568      111.93728     -18310.631      45.926747      44.648501      143.78031    
     57900  -18413.92       112.68081     -18301.239      45.919654      44.642499      143.83608    
     58000  -18405.584      115.6018      -18289.982      45.913035      44.637118      143.89185    
     58100  -18398.522      115.46732     -18283.054      45.906567      44.631658      143.94762    
     58200  -18391.681      112.91421     -18278.767      45.89972       44.625217      144.0034     
     58300  -18388.227      115.85323     -18272.374      45.893835      44.619281      144.05917    
     58400  -18379.759      113.89744     -18265.862      45.88772       44.612784      144.11494    
     58500  -18372.31       112.63381     -18259.676      45.881544      44.606747      144.17071    
     58600  -18367.807      112.49808     -18255.309      45.875224      44.601137      144.22649    
     58700  -18359.355      109.88011     -18249.475      45.867857      44.594549      144.28226    
     58800  -18351.453      112.95481     -18238.498      45.861512      44.589565      144.33803    
     58900  -18343.739      116.47177     -18227.267      45.854703      44.583883      144.3938     
     59000  -18337.151      116.48795     -18220.663      45.848157      44.578107      144.44957    
     59100  -18329.311      113.27983     -18216.031      45.842199      44.572224      144.50535    
     59200  -18322.006      112.55698     -18209.449      45.836226      44.56626       144.56112    
     59300  -18315.475      113.49335     -18201.982      45.830457      44.55995       144.61689    
     59400  -18308.588      114.36286     -18194.225      45.824658      44.553703      144.67266    
     59500  -18300.313      112.97477     -18187.338      45.81857       44.547013      144.72843    
     59600  -18294.422      111.95088     -18182.472      45.812644      44.540999      144.78421    
     59700  -18288.313      112.80482     -18175.509      45.806667      44.535797      144.83998    
     59800  -18278.163      112.27224     -18165.891      45.799757      44.5299        144.89575    
     59900  -18269.467      113.66064     -18155.806      45.793156      44.524548      144.95152    
     60000  -18262.698      115.51133     -18147.187      45.78646       44.518801      145.00729    
     60100  -18257.937      114.18983     -18143.747      45.780498      44.513063      145.06307    
     60200  -18251.023      113.11083     -18137.912      45.774629      44.50647       145.11884    
     60300  -18242.37       112.44688     -18129.924      45.769094      44.499794      145.17461    
     60400  -18236.895      115.46929     -18121.425      45.763839      44.493676      145.23038    
     60500  -18225.851      112.06625     -18113.785      45.757823      44.487116      145.28615    
     60600  -18221.141      112.27711     -18108.864      45.75249       44.481652      145.34193    
     60700  -18213.095      109.97713     -18103.118      45.746751      44.475377      145.3977     
     60800  -18208.693      113.61052     -18095.082      45.741144      44.469439      145.45347    
     60900  -18198.979      116.38041     -18082.599      45.735418      44.463324      145.50924    
     61000  -18189.214      116.83143     -18072.383      45.72928       44.456702      145.56501    
     61100  -18183.44       116.83056     -18066.61       45.723713      44.450748      145.62079    
     61200  -18174.818      113.40728     -18061.41       45.717925      44.444554      145.67656    
     61300  -18167.444      111.46316     -18055.981      45.711855      44.437818      145.73233    
     61400  -18164.63       114.92131     -18049.708      45.707049      44.43225       145.7881     
     61500  -18156.376      113.65842     -18042.718      45.701619      44.424917      145.84387    
     61600  -18148.784      113.45419     -18035.33       45.696709      44.418267      145.89965    
     61700  -18138.394      112.26914     -18026.125      45.692136      44.411946      145.95542    
     61800  -18131.11       115.47863     -18015.631      45.686552      44.404481      146.01119    
     61900  -18121.907      114.09312     -18007.814      45.681703      44.398476      146.06696    
     62000  -18113.65       110.04697     -18003.603      45.675644      44.392152      146.12273    
     62100  -18109.092      112.71422     -17996.378      45.66943       44.386609      146.17851    
     62200  -18101.791      113.58463     -17988.206      45.663702      44.382141      146.23428    
     62300  -18095.531      114.52745     -17981.003      45.656502      44.375906      146.29005    
     62400  -18087.948      111.07967     -17976.869      45.650619      44.371613      146.34582    
     62500  -18081.77       112.58777     -17969.182      45.644177      44.36554       146.40159    
     62600  -18073.487      115.21439     -17958.273      45.638603      44.359518      146.45737    
     62700  -18063.067      115.03446     -17948.033      45.633471      44.352964      146.51314    
     62800  -18053.34       113.42739     -17939.913      45.62775       44.34519       146.56891    
     62900  -18047.37       114.89341     -17932.476      45.623315      44.339292      146.62468    
     63000  -18040.979      114.58099     -17926.398      45.618094      44.332486      146.68045    
     63100  -18034.618      114.40222     -17920.216      45.61313       44.326114      146.73623    
     63200  -18027.5        115.05583     -17912.444      45.608561      44.319993      146.792      
     63300  -18016.149      111.53938     -17904.61       45.602834      44.312677      146.84777    
     63400  -18011.72       112.57699     -17899.143      45.598182      44.307321      146.90354    
     63500  -18005.577      112.61563     -17892.962      45.591935      44.300565      146.95931    
     63600  -17994.046      112.25699     -17881.789      45.586015      44.294967      147.01509    
     63700  -17984.996      114.94249     -17870.054      45.580425      44.289513      147.07086    
     63800  -17976.844      114.97909     -17861.865      45.573561      44.282537      147.12663    
     63900  -17970.28       115.51236     -17854.767      45.568917      44.278194      147.1824     
     64000  -17959.18       111.54329     -17847.637      45.56262       44.271397      147.23818    
     64100  -17954.642      114.66139     -17839.981      45.557457      44.265611      147.29395    
     64200  -17945.286      113.15156     -17832.134      45.55195       44.259379      147.34972    
     64300  -17936.82       111.96618     -17824.854      45.545942      44.252485      147.40549    
     64400  -17934.054      113.31924     -17820.735      45.541214      44.247603      147.46126    
     64500  -17924.401      112.67144     -17811.729      45.534684      44.240755      147.51704    
     64600  -17913.951      113.67207     -17800.279      45.529067      44.235307      147.57281    
     64700  -17903.781      114.29561     -17789.485      45.523241      44.229013      147.62858    
     64800  -17894.463      113.61338     -17780.85       45.517971      44.222824      147.68435    
     64900  -17888.159      114.31394     -17773.846      45.513299      44.216605      147.74012    
     65000  -17878.703      113.23705     -17765.466      45.508051      44.209002      147.7959     
     65100  -17871.069      113.5608      -17757.508      45.503966      44.202736      147.85167    
     65200  -17866.253      115.40812     -17750.845      45.499176      44.195713      147.90744    
     65300  -17855.803      112.81102     -17742.992      45.493895      44.188559      147.96321    
     65400  -17845.713      112.39651     -17733.317      45.489134      44.182891      148.01898    
     65500  -17839.442      113.67365     -17725.768      45.482732      44.176019      148.07476    
     65600  -17830.063      110.74789     -17719.315      45.477313      44.171317      148.13053    
     65700  -17822.245      111.69469     -17710.55       45.470359      44.165464      148.1863     
     65800  -17813.176      112.9353      -17700.241      45.463839      44.16055       148.24207    
     65900  -17805.124      117.71487     -17687.409      45.457421      44.155361      148.29784    
     66000  -17793.54       116.90191     -17676.638      45.450675      44.149265      148.35362    
     66100  -17787.713      116.32008     -17671.393      45.445444      44.14423       148.40939    
     66200  -17778.011      114.39127     -17663.62       45.43935       44.13694       148.46516    
     66300  -17769.28       113.4481      -17655.832      45.434733      44.130662      148.52093    
     66400  -17761.655      113.53192     -17648.123      45.429786      44.123134      148.5767     
     66500  -17752.525      112.66657     -17639.858      45.425267      44.116205      148.63248    
     66600  -17741.367      110.12864     -17631.238      45.420908      44.109585      148.68825    
     66700  -17737.854      113.28059     -17624.573      45.415906      44.102122      148.74402    
     66800  -17729.956      114.27225     -17615.684      45.411653      44.096141      148.79979    
     66900  -17716.041      112.9165      -17603.124      45.406032      44.089107      148.85556    
     67000  -17705.066      115.62234     -17589.444      45.400446      44.083233      148.91134    
     67100  -17697.858      118.25387     -17579.604      45.394418      44.077332      148.96711    
     67200  -17690.636      118.61866     -17572.018      45.387672      44.070878      149.02288    
     67300  -17677.083      112.37749     -17564.706      45.381927      44.065836      149.07865    
     67400  -17672.299      114.84432     -17557.455      45.375567      44.059863      149.13442    
     67500  -17660.131      111.7585      -17548.372      45.369684      44.054305      149.1902     
     67600  -17653.385      114.15987     -17539.225      45.363967      44.048616      149.24597    
     67700  -17643.028      112.97291     -17530.055      45.358021      44.042127      149.30174    
     67800  -17635.021      112.687       -17522.334      45.352753      44.035987      149.35751    
     67900  -17628.903      112.15197     -17516.751      45.347424      44.029222      149.41328    
     68000  -17617.214      111.72638     -17505.487      45.342424      44.022156      149.46906    
     68100  -17606.278      113.9583      -17492.32       45.337782      44.015321      149.52483    
     68200  -17596.008      115.24109     -17480.767      45.333014      44.007971      149.5806     
     68300  -17584.099      111.97545     -17472.124      45.328367      44.000987      149.63637    
     68400  -17578.07       113.34008     -17464.73       45.323475      43.994358      149.69214    
     68500  -17567.928      112.90835     -17455.02       45.318195      43.987863      149.74792    
     68600  -17560.279      115.12397     -17445.155      45.312597      43.981412      149.80369    
     68700  -17549.96       113.37226     -17436.588      45.306544      43.974965      149.85946    
     68800  -17541.841      114.60431     -17427.236      45.300411      43.969159      149.91523    
     68900  -17531.109      115.05386     -17416.055      45.293872      43.96298       149.971      
     69000  -17517.929      113.30577     -17404.623      45.287759      43.957558      150.02678    
     69100  -17509.417      114.88717     -17394.529      45.281647      43.951532      150.08255    
     69200  -17499.535      114.69502     -17384.84       45.276108      43.945465      150.13832    
     69300  -17487.593      113.11804     -17374.475      45.270835      43.938958      150.19409    
     69400  -17479.729      114.06923     -17365.66       45.265662      43.932121      150.24986    
     69500  -17469.568      112.86683     -17356.701      45.260935      43.925848      150.30564    
     69600  -17461.332      115.10958     -17346.223      45.255438      43.918266      150.36141    
     69700  -17449.93       114.21819     -17335.712      45.250525      43.911348      150.41718    
     69800  -17442.122      117.40075     -17324.722      45.245412      43.904189      150.47295    
     69900  -17433.124      118.70947     -17314.414      45.240261      43.897178      150.52873    
     70000  -17421.404      116.18976     -17305.214      45.23495       43.890451      150.5845     
     70100  -17410.193      115.32308     -17294.869      45.229468      43.884052      150.64027    
     70200  -17399.058      114.01217     -17285.046      45.223715      43.877782      150.69604    
     70300  -17390.846      117.2935      -17273.553      45.217772      43.871674      150.75181    
     70400  -17378.676      114.55123     -17264.125      45.211899      43.865376      150.80759    
     70500  -17369.365      116.29667     -17253.068      45.206178      43.858975      150.86336    
     70600  -17359.877      119.18537     -17240.692      45.200449      43.852301      150.91913    
     70700  -17346.442      116.3594      -17230.082      45.194731      43.845694      150.9749     
     70800  -17337.163      116.29232     -17220.871      45.189203      43.839263      151.03067    
     70900  -17325.894      114.78358     -17211.11       45.183518      43.832321      151.08645    
     71000  -17314.627      114.8668      -17199.76       45.178183      43.825442      151.14222    
     71100  -17304.039      113.57728     -17190.462      45.173037      43.818647      151.19799    
     71200  -17293.043      113.71491     -17179.328      45.167589      43.811573      151.25376    
     71300  -17285.002      116.44114     -17168.561      45.16248       43.805257      151.30953    
     71400  -17272.879      115.06772     -17157.811      45.156625      43.798191      151.36531    
     71500  -17262.584      115.916       -17146.668      45.151097      43.791724      151.42108    
     71600  -17252.183      116.46562     -17135.718      45.145401      43.784736      151.47685    
     71700  -17240.479      116.06842     -17124.411      45.139831      43.777771      151.53262    
     71800  -17228.672      116.30558     -17112.366      45.134656      43.771119      151.58839    
     71900  -17216.257      115.30026     -17100.957      45.12926       43.76373       151.64417    
     72000  -17208.944      117.89981     -17091.044      45.124275      43.756963      151.69994    
     72100  -17198.549      117.95293     -17080.596      45.118748      43.749724      151.75571    
     72200  -17183.92       115.05758     -17068.863      45.113461      43.742902      151.81148    
     72300  -17177.094      118.99423     -17058.1        45.108053      43.735834      151.86725    
     72400  -17162.58       115.67229     -17046.908      45.102476      43.728919      151.92303    
     72500  -17152.844      117.08505     -17035.759      45.096728      43.722175      151.9788     
     72600  -17138.612      115.25022     -17023.362      45.090959      43.715332      152.03457    
     72700  -17129.258      117.20584     -17012.052      45.085424      43.708373      152.09034    
     72800  -17118.997      117.77308     -17001.224      45.07992       43.701338      152.14611    
     72900  -17108.084      118.99355     -16989.09       45.074579      43.694272      152.20189    
     73000  -17094.497      117.52673     -16976.971      45.069116      43.686986      152.25766    
     73100  -17084.264      118.21392     -16966.05       45.063884      43.680059      152.31343    
     73200  -17070.924      115.47777     -16955.447      45.058386      43.672837      152.3692     
[...]
    181600  -20888.712      113.17281     -20775.539      38.083452      45.317827      212.82609    
    181700  -20889.836      110.93983     -20778.896      38.07927       45.310137      212.88186    
    181800  -20890.922      110.49638     -20780.426      38.075408      45.29976       212.93763    
    181900  -20889.289      110.99728     -20778.292      38.071128      45.28772       212.99341    
    182000  -20889.524      113.67238     -20775.852      38.067724      45.276444      213.04918    
    182100  -20890.168      114.37928     -20775.788      38.065012      45.266969      213.10495    
    182200  -20888.579      112.12896     -20776.451      38.061512      45.260353      213.16072    
    182300  -20890.503      112.62129     -20777.881      38.05846       45.256627      213.21649    
    182400  -20891.058      112.22261     -20778.835      38.054645      45.252142      213.27227    
    182500  -20889.015      110.95743     -20778.058      38.050819      45.247425      213.32804    
    182600  -20891.124      116.61309     -20774.511      38.046442      45.241955      213.38381    
    182700  -20888.087      114.53094     -20773.556      38.042389      45.234455      213.43958    
    182800  -20889.628      113.59733     -20776.031      38.037461      45.223966      213.49535    
    182900  -20891.448      111.7449      -20779.703      38.033441      45.21277       213.55113    
    183000  -20891.135      111.79835     -20779.337      38.029554      45.203296      213.6069     
    183100  -20890.537      113.27044     -20777.267      38.024638      45.1947        213.66267    
    183200  -20887.762      112.43872     -20775.323      38.020064      45.187464      213.71844    
    183300  -20888.997      114.38515     -20774.612      38.01491       45.182163      213.77421    
    183400  -20889.225      112.47727     -20776.747      38.010398      45.18006       213.82999    
    183500  -20891.685      110.17195     -20781.514      38.005657      45.17611       213.88576    
    183600  -20894.241      114.31886     -20779.922      38.001035      45.17144       213.94153    
    183700  -20892.843      115.94149     -20776.902      37.996618      45.166352      213.9973     
    183800  -20890.428      115.08049     -20775.348      37.992478      45.160416      214.05307    
    183900  -20891.047      115.89733     -20775.149      37.987724      45.153399      214.10885    
    184000  -20891.938      114.02084     -20777.917      37.982626      45.148163      214.16462    
    184100  -20891.661      109.78062     -20781.88       37.977646      45.144817      214.22039    
    184200  -20891.086      110.96886     -20780.117      37.972771      45.140449      214.27616    
    184300  -20890.024      112.76867     -20777.255      37.967574      45.134997      214.33193    
    184400  -20890.395      114.06566     -20776.329      37.962031      45.127681      214.38771    
    184500  -20890.93       114.4445      -20776.485      37.957423      45.118205      214.44348    
    184600  -20890.445      112.13504     -20778.31       37.952166      45.104964      214.49925    
    184700  -20892.427      110.52207     -20781.904      37.946782      45.090976      214.55502    
    184800  -20890.392      109.43143     -20780.96       37.941463      45.079802      214.61079    
    184900  -20886.586      109.69646     -20776.889      37.935877      45.069576      214.66657    
    185000  -20889.806      114.03996     -20775.766      37.930717      45.064679      214.72234    
    185100  -20890.027      114.24235     -20775.784      37.92486       45.064424      214.77811    
    185200  -20890.294      112.52384     -20777.77       37.919986      45.066617      214.83388    
    185300  -20892.488      112.11061     -20780.378      37.914784      45.066855      214.88965    
    185400  -20893.055      112.28883     -20780.766      37.910106      45.064853      214.94543    
    185500  -20888.907      112.91518     -20775.992      37.905218      45.060902      215.0012     
    185600  -20888.281      113.67589     -20774.605      37.900307      45.05299       215.05697    
    185700  -20887.424      111.98106     -20775.443      37.894795      45.042154      215.11274    
    185800  -20890.752      112.49316     -20778.259      37.889471      45.031449      215.16851    
    185900  -20892.153      110.86139     -20781.291      37.883856      45.023445      215.22429    
    186000  -20891.741      110.87801     -20780.863      37.877834      45.015907      215.28006    
    186100  -20890.326      115.3044      -20775.022      37.872666      45.00974       215.33583    
    186200  -20889.037      114.64908     -20774.388      37.866652      45.005015      215.3916     
    186300  -20891.443      114.9072      -20776.535      37.860871      45.000627      215.44738    
    186400  -20890.764      111.79251     -20778.971      37.855414      44.9928        215.50315    
    186500  -20890.87       111.5104      -20779.36       37.850128      44.980765      215.55892    
    186600  -20889.049      113.76072     -20775.289      37.844595      44.969217      215.61469    
    186700  -20887.877      114.81121     -20773.065      37.837807      44.959193      215.67046    
    186800  -20888.797      113.78211     -20775.015      37.830875      44.948764      215.72624    
    186900  -20888.782      111.21109     -20777.571      37.823631      44.93946       215.78201    
    187000  -20890.844      112.76905     -20778.075      37.817016      44.933394      215.83778    
    187100  -20891.506      113.92187     -20777.584      37.811247      44.930009      215.89355    
    187200  -20890.671      113.59419     -20777.077      37.804998      44.924362      215.94932    
    187300  -20891.752      115.91947     -20775.833      37.799236      44.917226      216.0051     
    187400  -20888.191      116.52456     -20771.667      37.792654      44.907297      216.06087    
    187500  -20886.523      114.53051     -20771.993      37.786157      44.89483       216.11664    
    187600  -20891.543      115.28683     -20776.256      37.779244      44.879611      216.17241    
    187700  -20891.23       112.88941     -20778.34       37.772413      44.864918      216.22818    
    187800  -20892.435      113.68772     -20778.747      37.765461      44.853194      216.28396    
    187900  -20888.58       111.56236     -20777.017      37.758954      44.843567      216.33973    
    188000  -20890.039      116.996       -20773.043      37.75321       44.834725      216.3955     
    188100  -20889.284      116.3452      -20772.938      37.747594      44.825657      216.45127    
    188200  -20888.203      112.82607     -20775.377      37.741689      44.818139      216.50704    
    188300  -20891.7        115.32392     -20776.376      37.735402      44.810436      216.56282    
    188400  -20890.906      113.95538     -20776.95       37.728457      44.797755      216.61859    
    188500  -20890.563      113.07181     -20777.491      37.722453      44.784142      216.67436    
    188600  -20889.636      111.8593      -20777.777      37.715988      44.772441      216.73013    
    188700  -20892.106      114.86077     -20777.246      37.709716      44.762652      216.7859     
    188800  -20892.167      116.38183     -20775.786      37.702988      44.755264      216.84168    
    188900  -20890.431      116.34144     -20774.09       37.696629      44.751297      216.89745    
    189000  -20888.028      113.18246     -20774.846      37.690043      44.748728      216.95322    
    189100  -20892.589      113.82473     -20778.764      37.682674      44.743945      217.00899    
    189200  -20893.034      112.66762     -20780.366      37.674789      44.736621      217.06476    
    189300  -20890.305      111.6007      -20778.705      37.666862      44.725528      217.12054    
    189400  -20890.947      114.96825     -20775.978      37.65882       44.709642      217.17631    
    189500  -20890.34       114.68907     -20775.65       37.651729      44.69175       217.23208    
    189600  -20888.722      111.82367     -20776.899      37.645261      44.676985      217.28785    
    189700  -20891.547      112.90394     -20778.643      37.638366      44.665784      217.34362    
    189800  -20892.82       114.09306     -20778.727      37.63131       44.658694      217.3994     
    189900  -20890.663      114.1898      -20776.473      37.624603      44.656984      217.45517    
    190000  -20887.708      113.8301      -20773.878      37.617155      44.656508      217.51094    
    190100  -20888.655      114.47157     -20774.183      37.610072      44.652584      217.56671    
    190200  -20891.565      113.42377     -20778.141      37.602023      44.642528      217.62248    
    190300  -20890.653      111.09989     -20779.554      37.594896      44.628689      217.67826    
    190400  -20891.781      113.66681     -20778.115      37.587526      44.611858      217.73403    
    190500  -20889.96       113.30913     -20776.651      37.580191      44.594363      217.7898     
    190600  -20888.288      113.09632     -20775.192      37.572485      44.579765      217.84557    
    190700  -20889.433      114.46586     -20774.967      37.565035      44.57151       217.90134    
    190800  -20892.013      114.51508     -20777.498      37.558191      44.56909       217.95712    
    190900  -20892.957      113.01523     -20779.942      37.55074       44.568531      218.01289    
    191000  -20892.906      113.37119     -20779.535      37.543474      44.568173      218.06866    
    191100  -20890.124      114.11295     -20776.011      37.535742      44.561536      218.12443    
    191200  -20888.33       113.77855     -20774.552      37.528043      44.548171      218.1802     
    191300  -20890.303      114.78121     -20775.522      37.520191      44.531953      218.23598    
    191400  -20891.499      112.7495      -20778.749      37.511565      44.515966      218.29175    
    191500  -20893.821      112.61725     -20781.204      37.503049      44.501869      218.34752    
    191600  -20891.89       112.06809     -20779.822      37.494267      44.491213      218.40329    
    191700  -20891.859      113.34599     -20778.513      37.487303      44.488184      218.45907    
    191800  -20890.903      114.33118     -20776.572      37.480097      44.489408      218.51484    
    191900  -20888.278      112.85242     -20775.426      37.474167      44.489654      218.57061    
    192000  -20891.173      115.6197      -20775.553      37.466812      44.485865      218.62638    
    192100  -20891.557      114.31705     -20777.24       37.459638      44.478604      218.68215    
    192200  -20891.679      111.95021     -20779.728      37.452354      44.463988      218.73793    
    192300  -20892.886      112.79991     -20780.086      37.44434       44.443243      218.7937     
    192400  -20888.856      113.06785     -20775.788      37.436935      44.427132      218.84947    
    192500  -20888.39       114.63762     -20773.753      37.428923      44.415459      218.90524    
    192600  -20890.012      115.25951     -20774.753      37.42158       44.406595      218.96101    
    192700  -20890.453      112.59895     -20777.854      37.414232      44.402586      219.01679    
    192800  -20892.637      112.7958      -20779.842      37.406293      44.402302      219.07256    
    192900  -20891.745      112.64189     -20779.103      37.399141      44.399895      219.12833    
    193000  -20890.928      113.33639     -20777.591      37.391358      44.390133      219.1841     
    193100  -20888.259      113.09582     -20775.163      37.384579      44.377356      219.23987    
    193200  -20890.149      115.57957     -20774.57       37.376141      44.362212      219.29565    
    193300  -20889.832      112.88121     -20776.951      37.367293      44.343969      219.35142    
    193400  -20888.999      108.21877     -20780.78       37.360019      44.326803      219.40719    
    193500  -20891.872      112.18437     -20779.687      37.352005      44.313435      219.46296    
    193600  -20890.219      113.54751     -20776.671      37.345366      44.306095      219.51873    
    193700  -20889.751      114.44883     -20775.302      37.337074      44.300397      219.57451    
    193800  -20890.128      114.90383     -20775.224      37.330475      44.29721       219.63028    
    193900  -20889.389      113.14557     -20776.243      37.3233        44.29118       219.68605    
    194000  -20890.672      111.21981     -20779.453      37.316155      44.281059      219.74182    
    194100  -20891.661      110.2263      -20781.435      37.308511      44.267355      219.79759    
    194200  -20889.933      111.97017     -20777.963      37.300118      44.250006      219.85337    
    194300  -20887.985      113.40964     -20774.575      37.292429      44.231735      219.90914    
    194400  -20889.389      114.69908     -20774.69       37.284301      44.214855      219.96491    
    194500  -20886.937      110.83618     -20776.101      37.276589      44.204436      220.02068    
    194600  -20890.893      112.71573     -20778.178      37.268803      44.198389      220.07645    
    194700  -20889.848      109.68915     -20780.159      37.261336      44.193508      220.13223    
    194800  -20888.935      110.47614     -20778.459      37.253639      44.187506      220.188      
    194900  -20885.893      111.50101     -20774.392      37.246145      44.17968       220.24377    
    195000  -20889.265      115.05982     -20774.205      37.238212      44.167963      220.29954    
    195100  -20887.292      111.53532     -20775.756      37.23069       44.150791      220.35531    
    195200  -20892.462      113.52142     -20778.941      37.223423      44.132587      220.41109    
    195300  -20895.572      113.84032     -20781.732      37.215425      44.11592       220.46686    
    195400  -20889.816      110.92845     -20778.888      37.208281      44.102103      220.52263    
    195500  -20887.872      113.05826     -20774.813      37.200948      44.09289       220.5784     
    195600  -20886.629      111.94245     -20774.687      37.193949      44.088873      220.63417    
    195700  -20890.767      115.1174      -20775.65       37.186902      44.086689      220.68995    
    195800  -20889.52       111.97223     -20777.548      37.180611      44.082151      220.74572    
    195900  -20889.777      110.21355     -20779.564      37.174669      44.074264      220.80149    
    196000  -20889.405      111.08901     -20778.316      37.167924      44.063152      220.85726    
    196100  -20888.154      114.51969     -20773.634      37.161162      44.048959      220.91303    
    196200  -20890.579      117.41103     -20773.168      37.154323      44.034404      220.96881    
    196300  -20888.697      112.95007     -20775.747      37.148094      44.021979      221.02458    
    196400  -20893.593      115.52355     -20778.069      37.141137      44.011042      221.08035    
    196500  -20889.739      111.9868      -20777.753      37.133981      44.002344      221.13612    
    196600  -20887.759      110.743       -20777.016      37.127737      43.994268      221.19189    
    196700  -20888.667      112.45571     -20776.211      37.12122       43.985555      221.24767    
    196800  -20890.099      114.4202      -20775.679      37.114921      43.977494      221.30344    
    196900  -20886.085      110.63704     -20775.448      37.108538      43.968057      221.35921    
    197000  -20889.382      112.5258      -20776.856      37.103194      43.957017      221.41498    
    197100  -20890.272      111.72308     -20778.549      37.098589      43.94573       221.47075    
    197200  -20889.34       111.78066     -20777.559      37.093205      43.935252      221.52653    
    197300  -20892.47       118.35613     -20774.114      37.088483      43.926311      221.5823     
    197400  -20889.215      116.06435     -20773.15       37.082979      43.918789      221.63807    
    197500  -20888.494      113.01609     -20775.478      37.077729      43.912032      221.69384    
    197600  -20889.229      110.66814     -20778.561      37.071996      43.903633      221.74962    
    197700  -20890.17       110.83365     -20779.336      37.06689       43.89447       221.80539    
    197800  -20890.733      117.50737     -20773.226      37.06183       43.885494      221.86116    
    197900  -20889.762      117.74563     -20772.016      37.056131      43.875831      221.91693    
    198000  -20889.672      114.54775     -20775.125      37.051834      43.866045      221.9727     
    198100  -20890.048      111.81401     -20778.234      37.046986      43.854537      222.02848    
    198200  -20887.014      108.21938     -20778.794      37.042428      43.843446      222.08425    
    198300  -20890.848      114.76257     -20776.085      37.036781      43.832555      222.14002    
    198400  -20887.984      114.45443     -20773.529      37.031772      43.823398      222.19579    
    198500  -20889.632      115.4053      -20774.227      37.026954      43.814059      222.25156    
    198600  -20887.691      112.21736     -20775.473      37.022051      43.806126      222.30734    
    198700  -20889.242      113.25882     -20775.983      37.018405      43.800502      222.36311    
    198800  -20890.662      114.51426     -20776.147      37.01453       43.793824      222.41888    
    198900  -20889.759      113.30265     -20776.456      37.010916      43.786642      222.47465    
    199000  -20889.77       112.26688     -20777.503      37.006999      43.778999      222.53042    
    199100  -20892.361      114.27529     -20778.086      37.004076      43.770687      222.5862     
    199200  -20889.586      113.20903     -20776.377      37.000537      43.760106      222.64197    
    199300  -20886.984      113.30494     -20773.679      36.995584      43.748652      222.69774    
    199400  -20885.738      112.75671     -20772.981      36.992065      43.73831       222.75351    
    199500  -20888.85       111.72092     -20777.129      36.988109      43.726884      222.80928    
    199600  -20892.216      112.93567     -20779.28       36.984264      43.716995      222.86506    
    199700  -20891.843      114.06157     -20777.781      36.980433      43.708377      222.92083    
    199800  -20891.43       115.72789     -20775.702      36.97704       43.702064      222.9766     
    199900  -20886.932      112.9298      -20774.002      36.973031      43.695442      223.03237    
    200000  -20886.543      115.28651     -20771.257      36.968775      43.686893      223.08814    
Loop time of 2324.76 on 8 procs for 200000 steps with 2928 atoms

Performance: 7.433 ns/day, 3.229 hours/ns, 86.030 timesteps/s
88.6% CPU use with 8 MPI tasks x 1 OpenMP threads

MPI task timing breakdown:
Section |  min time  |  avg time  |  max time  |%varavg| %total
---------------------------------------------------------------
Pair    | 547.04     | 1164.3     | 2030       |1537.1 | 50.08
Neigh   | 3.1109     | 8.6813     | 15.734     | 156.1 |  0.37
Comm    | 218.49     | 752.51     | 1333.7     |1518.2 | 32.37
Output  | 0.78989    | 0.79599    | 0.83669    |   1.7 |  0.03
Modify  | 56.667     | 394.38     | 1384.6     |2651.5 | 16.96
Other   |            | 4.088      |            |       |  0.18

Nlocal:            366 ave        1391 max           0 min
Histogram: 5 1 0 0 0 0 0 0 0 2
Nghost:        1531.12 ave        3760 max           0 min
Histogram: 2 0 2 1 1 0 0 0 0 2
Neighs:              0 ave           0 max           0 min
Histogram: 8 0 0 0 0 0 0 0 0 0

Total # of neighbors = 0
Ave neighs/atom = 0
Neighbor list builds = 1107
Dangerous builds = 0
Total wall time: 0:38:45
