LAMMPS (23 Jun 2022 - Update 1)
OMP_NUM_THREADS environment is not set. Defaulting to 1 thread. (../comm.cpp:98)
  using 1 OpenMP thread(s) per MPI task
Reading data file ...
  orthogonal box = (-25.0214 -25.0214 -39.404249) to (25.0214 25.0214 76.989751)
  1 by 2 by 4 MPI processor grid
  reading atoms ...
  3024 atoms
  read_data CPU = 0.010 seconds
Reading airebo potential file CH.airebo with DATE: 2011-10-25
Reading airebo potential file CH.airebo with DATE: 2011-10-25
Reading airebo potential file CH.airebo with DATE: 2011-10-25
Neighbor list info ...
  update every 1 steps, delay 0 steps, check yes
  max neighbors/atom: 2000, page size: 100000
  master list distance cutoff = 13.2
  ghost atom cutoff = 13.2
  binsize = 6.6, bins = 8 8 18
  6 neighbor lists, perpetual/occasional/extra = 6 0 0
  (1) pair airebo, perpetual, skip from (5)
      attributes: full, newton on, ghost
      pair build: skip/ghost
      stencil: none
      bin: none
  (2) pair airebo, perpetual, skip from (5)
      attributes: full, newton on, ghost
      pair build: skip/ghost
      stencil: none
      bin: none
  (3) pair airebo, perpetual, skip from (5)
      attributes: full, newton on, ghost
      pair build: skip/ghost
      stencil: none
      bin: none
  (4) pair lj/cut, perpetual, skip from (6)
      attributes: half, newton on
      pair build: skip
      stencil: none
      bin: none
  (5) neighbor class addition, perpetual
      attributes: full, newton on, ghost
      pair build: full/bin/ghost
      stencil: full/ghost/bin/3d
      bin: standard
  (6) neighbor class addition, perpetual
      attributes: half, newton on
      pair build: half/bin/atomonly/newton
      stencil: half/bin/3d
      bin: standard
Setting up sd style minimization ...
  Unit style    : metal
  Current step  : 0
Per MPI rank memory allocation (min/avg/max) = 10.25 | 10.25 | 10.25 Mbytes
   Step          Temp          E_pair         E_mol          TotEng         Press     
         0   0             -20987.364      0             -20987.364      27882.702    
        14   0             -21946.82       0             -21946.82       631.53972    
Loop time of 0.129088 on 8 procs for 14 steps with 3024 atoms

98.4% CPU use with 8 MPI tasks x 1 OpenMP threads

Minimization stats:
  Stopping criterion = energy tolerance
  Energy initial, next-to-last, final = 
     -20987.3641320402  -21945.2476008186  -21946.8197421693
  Force two-norm initial, final = 775.07538 18.985723
  Force max component initial, final = 108.2718 2.6933237
  Final line search alpha, max atom move = 0.068300328 0.18395489
  Iterations, force evaluations = 14 23

MPI task timing breakdown:
Section |  min time  |  avg time  |  max time  |%varavg| %total
---------------------------------------------------------------
Pair    | 0.11874    | 0.12187    | 0.12699    |   0.8 | 94.41
Neigh   | 0          | 0          | 0          |   0.0 |  0.00
Comm    | 0.0013759  | 0.0059342  | 0.009388   |   3.9 |  4.60
Output  | 0          | 0          | 0          |   0.0 |  0.00
Modify  | 0          | 0          | 0          |   0.0 |  0.00
Other   |            | 0.001288   |            |       |  1.00

Nlocal:            378 ave         390 max         366 min
Histogram: 4 0 0 0 0 0 0 0 0 4
Nghost:           1060 ave        1072 max        1048 min
Histogram: 4 0 0 0 0 0 0 0 0 4
Neighs:              0 ave           0 max           0 min
Histogram: 8 0 0 0 0 0 0 0 0 0

Total # of neighbors = 0
Ave neighs/atom = 0
Neighbor list builds = 0
Dangerous builds = 0
Setting up Verlet run ...
  Unit style    : metal
  Current step  : 14
  Time step     : 0.001
Per MPI rank memory allocation (min/avg/max) = 10.88 | 10.88 | 10.88 Mbytes
   Step          Temp          E_pair         E_mol          TotEng         Press          Volume    
        14   300           -21946.82       0             -21829.594      1061.1052      291483.38    
Loop time of 3.15513e-06 on 8 procs for 0 steps with 3024 atoms

27.7% CPU use with 8 MPI tasks x 1 OpenMP threads

MPI task timing breakdown:
Section |  min time  |  avg time  |  max time  |%varavg| %total
---------------------------------------------------------------
Pair    | 0          | 0          | 0          |   0.0 |  0.00
Neigh   | 0          | 0          | 0          |   0.0 |  0.00
Comm    | 0          | 0          | 0          |   0.0 |  0.00
Output  | 0          | 0          | 0          |   0.0 |  0.00
Modify  | 0          | 0          | 0          |   0.0 |  0.00
Other   |            | 3.155e-06  |            |       |100.00

Nlocal:            378 ave         382 max         374 min
Histogram: 2 0 0 2 0 0 2 0 0 2
Nghost:           1062 ave        1066 max        1058 min
Histogram: 2 0 0 2 0 0 2 0 0 2
Neighs:              0 ave           0 max           0 min
Histogram: 8 0 0 0 0 0 0 0 0 0

Total # of neighbors = 0
Ave neighs/atom = 0
Neighbor list builds = 0
Dangerous builds = 0
Setting up Verlet run ...
  Unit style    : metal
  Current step  : 0
  Time step     : 0.001
Per MPI rank memory allocation (min/avg/max) = 13.66 | 13.66 | 13.66 Mbytes
   Step         PotEng         KinEng         TotEng           Lx             Ly             Lz      
         0  -21946.82       117.22603     -21829.594      50.0428        50.0428        116.394      
       100  -21927.319      107.84671     -21819.473      50.049894      50.030716      116.4522     
       200  -21936.522      118.54363     -21817.979      50.050396      50.005853      116.51039    
       300  -21931.738      113.12259     -21818.615      50.074267      49.994776      116.56859    
       400  -21935.964      121.39388     -21814.57       50.082024      49.970598      116.62679    
       500  -21929.909      121.5773      -21808.331      50.107026      49.958459      116.68499    
       600  -21928.321      123.54788     -21804.774      50.118111      49.947748      116.74318    
       700  -21915.616      115.70789     -21799.908      50.122052      49.953296      116.80138    
       800  -21900.41       108.74125     -21791.669      50.125355      49.972519      116.85958    
       900  -21901.979      117.79363     -21784.185      50.099905      49.982459      116.91777    
      1000  -21906.786      124.77207     -21782.014      50.0847        50.001325      116.97597    
      1100  -21921.312      129.85189     -21791.461      50.06274       50.012816      117.03417    
      1200  -21916.338      114.79024     -21801.548      50.049796      50.026832      117.09236    
      1300  -21909.429      109.08313     -21800.346      50.035147      50.037159      117.15056    
      1400  -21909.931      118.61354     -21791.318      50.023044      50.049643      117.20876    
      1500  -21901.568      115.49341     -21786.075      50.018492      50.06634       117.26695    
      1600  -21893.603      114.07553     -21779.527      50.008302      50.066641      117.32515    
      1700  -21894.26       119.53751     -21774.722      50.012393      50.072239      117.38335    
      1800  -21901.497      123.69208     -21777.805      50.014722      50.066542      117.44155    
      1900  -21896.268      114.25915     -21782.009      50.017993      50.057939      117.49974    
      2000  -21899.954      120.12862     -21779.826      50.024999      50.052401      117.55794    
      2100  -21902.348      121.8579      -21780.49       50.029232      50.046923      117.61614    
      2200  -21900.446      116.40278     -21784.043      50.032929      50.046335      117.67433    
      2300  -21899.015      114.42166     -21784.593      50.031077      50.044821      117.73253    
      2400  -21898.976      119.29662     -21779.68       50.028992      50.045918      117.79073    
      2500  -21893.4        117.31389     -21776.086      50.026369      50.050054      117.84893    
      2600  -21894.515      120.18078     -21774.334      50.020202      50.052239      117.90712    
      2700  -21893.503      117.23361     -21776.27       50.016489      50.060104      117.96532    
      2800  -21896.51       118.61236     -21777.897      50.012243      50.064071      118.02352    
      2900  -21892.739      116.13114     -21776.608      50.011755      50.066403      118.08171    
      3000  -21895.906      123.06296     -21772.843      50.012201      50.064065      118.13991    
      3100  -21892.654      119.07388     -21773.58       50.013112      50.061331      118.19811    
      3200  -21890.166      115.71491     -21774.451      50.012311      50.059382      118.2563     
      3300  -21891.634      117.9313      -21773.703      50.009506      50.05733       118.3145     
      3400  -21889.925      117.09069     -21772.834      50.008691      50.058788      118.3727     
      3500  -21886.925      118.50639     -21768.419      50.008667      50.059455      118.43089    
      3600  -21878.56       115.04273     -21763.517      50.009155      50.058849      118.48909    
      3700  -21882.756      121.15004     -21761.606      50.009938      50.056437      118.54729    
      3800  -21883.185      119.09231     -21764.092      50.01052       50.053277      118.60549    
      3900  -21882.792      117.29182     -21765.5        50.013685      50.051307      118.66368    
      4000  -21886.341      120.01469     -21766.326      50.015092      50.048384      118.72188    
      4100  -21887.732      119.07678     -21768.655      50.016864      50.046993      118.78008    
      4200  -21884.703      115.80364     -21768.9        50.016872      50.043899      118.83827    
      4300  -21878.245      113.55114     -21764.693      50.017034      50.040459      118.89647    
      4400  -21878.786      118.33878     -21760.448      50.017378      50.038397      118.95467    
      4500  -21874.124      114.42748     -21759.696      50.017183      50.034491      119.01287    
      4600  -21871.067      114.40462     -21756.662      50.018804      50.031991      119.07106    
      4700  -21872.045      120.75891     -21751.286      50.020235      50.026979      119.12926    
      4800  -21868.489      117.18992     -21751.299      50.023516      50.022807      119.18746    
      4900  -21870.675      117.65045     -21753.024      50.027082      50.018226      119.24565    
      5000  -21866.89       114.15503     -21752.735      50.028706      50.012461      119.30385    
      5100  -21871.479      121.1058      -21750.373      50.031835      50.010185      119.36205    
      5200  -21864.434      113.3766      -21751.057      50.033289      50.008396      119.42024    
      5300  -21862.698      114.23108     -21748.467      50.032044      50.006046      119.47844    
      5400  -21864.25       118.76226     -21745.488      50.0321        50.006343      119.53664    
      5500  -21860.567      115.93404     -21744.632      50.029444      50.00366       119.59484    
      5600  -21856.273      115.28908     -21740.984      50.02964       50.002893      119.65303    
      5700  -21856.363      119.80881     -21736.555      50.028529      50.000255      119.71123    
      5800  -21858.537      120.83059     -21737.706      50.028318      49.997633      119.76943    
      5900  -21856.854      118.52855     -21738.326      50.028181      49.994378      119.82762    
      6000  -21852.65       116.44453     -21736.205      50.027759      49.990427      119.88582    
      6100  -21852.35       120.83375     -21731.516      50.028595      49.986376      119.94402    
      6200  -21848.157      118.76627     -21729.39       50.028494      49.981712      120.00221    
      6300  -21847.863      118.58282     -21729.28       50.02989       49.978235      120.06041    
      6400  -21844.533      111.45094     -21733.082      50.031297      49.975092      120.11861    
      6500  -21846.53       115.54147     -21730.988      50.031863      49.971608      120.17681    
      6600  -21843.191      116.97397     -21726.217      50.03454       49.969459      120.235      
      6700  -21837.961      116.83743     -21721.124      50.03525       49.964397      120.2932     
      6800  -21839.032      120.45448     -21718.578      50.036661      49.960691      120.3514     
      6900  -21839.321      120.58247     -21718.739      50.03763       49.957998      120.40959    
      7000  -21837.04       116.72834     -21720.312      50.037757      49.955799      120.46779    
      7100  -21833.287      115.13079     -21718.156      50.036618      49.952891      120.52599    
      7200  -21829.023      115.12587     -21713.897      50.034841      49.949455      120.58418    
      7300  -21826.907      118.01577     -21708.891      50.034265      49.945893      120.64238    
      7400  -21823.371      116.96727     -21706.404      50.033584      49.941372      120.70058    
      7500  -21822.935      118.12626     -21704.809      50.035227      49.93642       120.75877    
      7600  -21819.84       115.35669     -21704.483      50.037729      49.92909       120.81697    
      7700  -21821.437      118.43233     -21703.004      50.041138      49.921234      120.87517    
      7800  -21817.675      116.65173     -21701.023      50.04556       49.914099      120.93337    
      7900  -21814.336      115.9804      -21698.356      50.04902       49.906446      120.99156    
      8000  -21815.41       118.98823     -21696.422      50.052083      49.898753      121.04976    
      8100  -21810.625      114.43899     -21696.186      50.056285      49.892582      121.10796    
      8200  -21809.478      115.87205     -21693.605      50.057178      49.884999      121.16615    
      8300  -21804.729      116.55833     -21688.171      50.059125      49.87938       121.22435    
      8400  -21803.571      120.06915     -21683.502      50.059211      49.873231      121.28255    
      8500  -21802.796      119.12997     -21683.666      50.0603        49.868327      121.34074    
      8600  -21801.234      117.19773     -21684.036      50.060965      49.862495      121.39894    
      8700  -21798.56       116.18519     -21682.375      50.062406      49.857828      121.45714    
      8800  -21795.467      116.78615     -21678.68       50.062308      49.852855      121.51534    
      8900  -21792.715      118.74508     -21673.97       50.061292      49.849125      121.57353    
      9000  -21788.437      120.24358     -21668.193      50.060976      49.846731      121.63173    
      9100  -21786.174      117.69928     -21668.475      50.058354      49.842879      121.68993    
      9200  -21785.891      115.58057     -21670.311      50.059088      49.83925       121.74812    
      9300  -21785.166      116.12573     -21669.041      50.057525      49.833855      121.80632    
      9400  -21783.293      115.94961     -21667.343      50.057399      49.829067      121.86452    
      9500  -21779.362      115.18838     -21664.173      50.056181      49.824549      121.92272    
      9600  -21774.514      116.88996     -21657.624      50.053218      49.820029      121.98091    
      9700  -21773.672      119.63867     -21654.034      50.051634      49.815953      122.03911    
      9800  -21772.711      118.83606     -21653.875      50.048675      49.810327      122.09731    
      9900  -21767.626      114.86545     -21652.76       50.048328      49.806116      122.1555     
     10000  -21766.768      116.64113     -21650.127      50.047646      49.800884      122.2137     
     10100  -21764.537      117.61522     -21646.922      50.046489      49.794444      122.2719     
     10200  -21762.181      119.00371     -21643.178      50.047011      49.789229      122.33009    
     10300  -21761.159      122.18894     -21638.97       50.045203      49.783125      122.38829    
     10400  -21755.277      117.99402     -21637.283      50.045742      49.777988      122.44649    
     10500  -21755.276      117.05447     -21638.221      50.046102      49.771931      122.50468    
     10600  -21753.043      115.87216     -21637.171      50.045184      49.765271      122.56288    
     10700  -21750.856      117.79304     -21633.063      50.045062      49.759925      122.62108    
     10800  -21744.554      118.1243      -21626.43       50.042839      49.753786      122.67928    
     10900  -21741.05       118.63851     -21622.411      50.039983      49.748408      122.73747    
     11000  -21738.23       117.05849     -21621.172      50.036029      49.743777      122.79567    
     11100  -21739.782      119.48637     -21620.296      50.031915      49.739832      122.85387    
     11200  -21734.187      114.78766     -21619.399      50.027864      49.736069      122.91206    
     11300  -21734.114      116.9218      -21617.192      50.023028      49.732044      122.97026    
     11400  -21728.893      117.33851     -21611.554      50.019072      49.728544      123.02846    
     11500  -21723.229      119.0715      -21604.157      50.014014      49.723232      123.08666    
     11600  -21718.296      117.37787     -21600.918      50.011017      49.718637      123.14485    
     11700  -21718.431      118.68154     -21599.749      50.008227      49.713353      123.20305    
     11800  -21715.4        114.39169     -21601.008      50.005096      49.706927      123.26125    
     11900  -21712.154      114.02042     -21598.134      50.003617      49.701038      123.31944    
     12000  -21710.511      117.36064     -21593.151      50.000889      49.693842      123.37764    
     12100  -21705.624      117.66302     -21587.961      49.998989      49.687463      123.43584    
     12200  -21705.062      119.30998     -21585.752      49.996018      49.680755      123.49403    
     12300  -21702.992      115.06801     -21587.924      49.992206      49.67277       123.55223    
     12400  -21700.336      116.12949     -21584.207      49.989622      49.665833      123.61043    
     12500  -21695.662      117.05204     -21578.61       49.985919      49.657742      123.66863    
     12600  -21692.945      118.27808     -21574.667      49.983953      49.650203      123.72682    
     12700  -21690.532      118.70908     -21571.823      49.981375      49.641574      123.78502    
     12800  -21689.777      119.23724     -21570.539      49.977291      49.631953      123.84322    
     12900  -21686.394      116.18163     -21570.212      49.974789      49.623725      123.90141    
     13000  -21683.576      116.07683     -21567.499      49.96991       49.614644      123.95961    
     13100  -21678.751      118.8062      -21559.945      49.967675      49.607261      124.01781    
     13200  -21669.77       115.08551     -21554.684      49.963535      49.598845      124.076      
     13300  -21671.488      120.39339     -21551.095      49.958102      49.591015      124.1342     
     13400  -21666.503      116.68388     -21549.819      49.952295      49.584403      124.1924     
     13500  -21663.348      113.55249     -21549.795      49.945001      49.576319      124.2506     
     13600  -21660.406      116.03557     -21544.371      49.940005      49.568797      124.30879    
     13700  -21656.541      117.31978     -21539.221      49.93409       49.560236      124.36699    
     13800  -21654.957      119.03229     -21535.925      49.927777      49.551161      124.42519    
     13900  -21647.844      115.3666      -21532.477      49.923838      49.542993      124.48338    
     14000  -21646.366      117.87136     -21528.495      49.916374      49.532473      124.54158    
     14100  -21639.841      114.38663     -21525.454      49.911658      49.523285      124.59978    
     14200  -21641.879      118.23136     -21523.648      49.904969      49.512477      124.65797    
     14300  -21638.8        117.08275     -21521.717      49.899436      49.501756      124.71617    
     14400  -21631.859      115.87325     -21515.986      49.89447       49.490516      124.77437    
     14500  -21627.95       118.81053     -21509.14       49.887545      49.477877      124.83257    
     14600  -21625.221      118.27844     -21506.943      49.883228      49.466465      124.89076    
     14700  -21622.079      117.1452      -21504.934      49.876128      49.453131      124.94896    
     14800  -21617.279      116.36233     -21500.917      49.870177      49.44136       125.00716    
     14900  -21614.44       117.75032     -21496.689      49.862835      49.428927      125.06535    
     15000  -21611.059      118.60064     -21492.458      49.85599       49.415683      125.12355    
     15100  -21605.351      116.23979     -21489.112      49.850955      49.40401       125.18175    
     15200  -21604.875      115.88801     -21488.987      49.841594      49.390051      125.23994    
     15300  -21601.671      113.08057     -21488.591      49.834032      49.378482      125.29814    
     15400  -21597.171      114.44814     -21482.723      49.824812      49.365742      125.35634    
     15500  -21596.521      120.32095     -21476.2        49.8154        49.352718      125.41454    
     15600  -21587.866      116.2873      -21471.578      49.807489      49.339277      125.47273    
     15700  -21585.032      117.92512     -21467.107      49.79795       49.323024      125.53093    
     15800  -21580.529      117.23192     -21463.297      49.79078       49.308346      125.58913    
     15900  -21577.421      117.38314     -21460.038      49.780937      49.291886      125.64732    
     16000  -21571.841      114.8675      -21456.974      49.771762      49.275998      125.70552    
     16100  -21571.498      118.89696     -21452.601      49.762339      49.259437      125.76372    
     16200  -21561.7        115.69996     -21446          49.75152       49.242627      125.82191    
     16300  -21558.574      119.25758     -21439.316      49.741111      49.227156      125.88011    
     16400  -21557.537      121.02904     -21436.508      49.729168      49.210803      125.93831    
     16500  -21552.175      115.31843     -21436.856      49.718487      49.194814      125.9965     
     16600  -21551.81       118.1436      -21433.666      49.706629      49.17802       126.0547     
     16700  -21547.029      117.12946     -21429.899      49.69454       49.160795      126.1129     
     16800  -21541.123      117.57969     -21423.544      49.68341       49.143158      126.1711     
     16900  -21535.036      118.21809     -21416.818      49.67195       49.123944      126.22929    
     17000  -21534.476      120.32081     -21414.155      49.661256      49.104648      126.28749    
     17100  -21528.017      114.59497     -21413.423      49.649819      49.084044      126.34569    
     17200  -21527.297      117.60827     -21409.688      49.638502      49.062981      126.40388    
     17300  -21519.995      115.20544     -21404.79       49.627159      49.042404      126.46208    
     17400  -21517.012      117.3167      -21399.695      49.613062      49.020802      126.52028    
     17500  -21517.481      120.13165     -21397.35       49.600794      49.000649      126.57847    
     17600  -21510.154      113.32624     -21396.828      49.587477      48.978931      126.63667    
     17700  -21506.76       114.5945      -21392.165      49.575139      48.955744      126.69487    
     17800  -21502.958      118.05739     -21384.901      49.564295      48.932127      126.75307    
     17900  -21499.16       119.99514     -21379.165      49.551052      48.906853      126.81126    
     18000  -21489.86       114.99584     -21374.864      49.5386        48.883756      126.86946    
     18100  -21487.106      116.61408     -21370.492      49.523597      48.860692      126.92766    
     18200  -21484.003      117.51275     -21366.49       49.507118      48.838923      126.98585    
     18300  -21484.698      119.92335     -21364.775      49.490667      48.818016      127.04405    
     18400  -21475.903      112.57703     -21363.326      49.473291      48.796699      127.10225    
     18500  -21473.447      115.79354     -21357.654      49.456042      48.774846      127.16045    
     18600  -21468.875      119.29069     -21349.584      49.440531      48.752611      127.21864    
     18700  -21463.742      118.81037     -21344.932      49.424587      48.72872       127.27684    
     18800  -21458.597      117.47525     -21341.122      49.409459      48.704697      127.33504    
     18900  -21454.657      116.4643      -21338.193      49.395101      48.681117      127.39323    
     19000  -21450.898      113.24171     -21337.656      49.378713      48.656316      127.45143    
     19100  -21447.831      114.78398     -21333.047      49.362598      48.632885      127.50963    
     19200  -21442.224      118.13779     -21324.087      49.346159      48.609066      127.56782    
     19300  -21436.212      117.768       -21318.444      49.328884      48.584369      127.62602    
     19400  -21431.374      117.5274      -21313.847      49.313078      48.559959      127.68422    
     19500  -21429.396      117.3578      -21312.038      49.297402      48.534641      127.74242    
     19600  -21424.608      114.5958      -21310.012      49.281317      48.508733      127.80061    
     19700  -21421.563      116.83295     -21304.73       49.266145      48.48443       127.85881    
     19800  -21414.387      118.77783     -21295.609      49.249486      48.459957      127.91701    
     19900  -21410.306      120.26595     -21290.04       49.232426      48.435258      127.9752     
     20000  -21404.97       117.17605     -21287.793      49.216863      48.412436      128.0334     
     20100  -21400.326      114.78744     -21285.538      49.199699      48.388285      128.0916     
     20200  -21396.827      115.7719      -21281.055      49.183607      48.365415      128.14979    
     20300  -21393.59       119.97405     -21273.616      49.16829       48.342392      128.20799    
     20400  -21384.149      118.38136     -21265.768      49.152283      48.31793       128.26619    
     20500  -21380.445      117.73254     -21262.713      49.138332      48.294428      128.32439    
     20600  -21379.304      115.98131     -21263.323      49.123316      48.26979       128.38258    
     20700  -21376.258      117.61661     -21258.641      49.108703      48.246096      128.44078    
     20800  -21370.004      118.71425     -21251.29       49.093153      48.223191      128.49898    
     20900  -21363.754      118.66022     -21245.094      49.07695       48.200744      128.55717    
     21000  -21359.199      117.50612     -21241.693      49.061445      48.179153      128.61537    
     21100  -21357.44       115.45035     -21241.99       49.045961      48.157837      128.67357    
     21200  -21351.131      113.29109     -21237.84       49.031713      48.136342      128.73176    
     21300  -21345.15       115.38764     -21229.763      49.017333      48.114211      128.78996    
     21400  -21339.39       116.92496     -21222.465      49.004441      48.092961      128.84816    
     21500  -21336.521      118.69577     -21217.826      48.990617      48.070931      128.90636    
     21600  -21331.56       116.24216     -21215.318      48.976599      48.049603      128.96455    
     21700  -21327.973      114.36197     -21213.611      48.963601      48.029995      129.02275    
     21800  -21323.203      114.35739     -21208.846      48.949453      48.009498      129.08095    
     21900  -21315.973      117.8085      -21198.164      48.936419      47.991337      129.13914    
     22000  -21310.85       118.32469     -21192.525      48.921961      47.972453      129.19734    
     22100  -21304.035      114.27088     -21189.764      48.90844       47.953862      129.25554    
     22200  -21302.593      115.9044      -21186.689      48.895573      47.935346      129.31373    
     22300  -21300.841      118.3553      -21182.485      48.883017      47.916956      129.37193    
     22400  -21294.013      117.20603     -21176.807      48.871556      47.899384      129.43013    
     22500  -21287.866      118.25145     -21169.615      48.859436      47.881599      129.48833    
     22600  -21283.613      120.59747     -21163.015      48.847603      47.865159      129.54652    
     22700  -21277.519      118.0551      -21159.464      48.835286      47.849187      129.60472    
     22800  -21272.024      113.49788     -21158.526      48.822117      47.833043      129.66292    
     22900  -21269.648      115.71395     -21153.934      48.810181      47.819046      129.72111    
     23000  -21262.712      115.96069     -21146.751      48.797119      47.803756      129.77931    
     23100  -21259.743      119.08525     -21140.657      48.784973      47.789438      129.83751    
     23200  -21253.924      118.32806     -21135.596      48.773356      47.774809      129.8957     
     23300  -21248.36       117.69012     -21130.67       48.762744      47.760556      129.9539     
     23400  -21242.506      116.06764     -21126.438      48.752555      47.745927      130.0121     
     23500  -21237.125      117.50982     -21119.615      48.742238      47.730562      130.07029    
     23600  -21230.884      119.02053     -21111.863      48.733514      47.716677      130.12849    
     23700  -21226.907      119.77977     -21107.128      48.723502      47.701066      130.18669    
     23800  -21224.98       118.07519     -21106.904      48.715181      47.688018      130.24489    
     23900  -21218.484      115.90257     -21102.581      48.70552       47.6742        130.30308    
     24000  -21213.605      116.92411     -21096.681      48.69608       47.661376      130.36128    
     24100  -21206.725      117.13349     -21089.591      48.687602      47.650207      130.41948    
     24200  -21200.921      119.55394     -21081.367      48.676889      47.636222      130.47767    
     24300  -21193.095      117.80057     -21075.294      48.668761      47.62524       130.53587    
     24400  -21192.325      117.76822     -21074.557      48.659989      47.612359      130.59407    
     24500  -21188.749      116.38597     -21072.363      48.651292      47.598961      130.65226    
     24600  -21180.885      114.44528     -21066.439      48.644626      47.587624      130.71046    
     24700  -21175.339      117.37322     -21057.965      48.636677      47.574139      130.76866    
     24800  -21169.791      119.041       -21050.75       48.629466      47.562304      130.82686    
     24900  -21164.753      118.16854     -21046.584      48.622233      47.550986      130.88505    
     25000  -21160.756      117.47086     -21043.286      48.614373      47.538724      130.94325    
     25100  -21156.185      117.39401     -21038.791      48.607445      47.527485      131.00145    
     25200  -21151.955      118.59024     -21033.365      48.600417      47.51606       131.05964    
     25300  -21145.752      117.50003     -21028.251      48.593303      47.505287      131.11784    
     25400  -21139.886      116.53536     -21023.35       48.585933      47.494797      131.17604    
     25500  -21134.712      116.21979     -21018.492      48.577975      47.484654      131.23424    
     25600  -21129.018      116.41624     -21012.602      48.570239      47.47558       131.29243    
     25700  -21121.767      117.18996     -21004.577      48.56218       47.465196      131.35063    
     25800  -21117.223      119.9371      -20997.286      48.555474      47.455792      131.40883    
     25900  -21113.285      118.86692     -20994.418      48.548969      47.445775      131.46702    
     26000  -21107.968      115.9075      -20992.06       48.542151      47.43488       131.52522    
     26100  -21101.752      115.30553     -20986.446      48.536413      47.425572      131.58342    
     26200  -21096.94       117.27541     -20979.664      48.529799      47.415159      131.64161    
     26300  -21093.774      120.14649     -20973.627      48.524019      47.406164      131.69981    
     26400  -21084.414      115.10677     -20969.307      48.517536      47.395608      131.75801    
     26500  -21082.269      116.09376     -20966.176      48.511613      47.384802      131.8162     
     26600  -21077.993      116.04594     -20961.947      48.506805      47.375203      131.8744     
     26700  -21072.745      118.93264     -20953.813      48.500712      47.364464      131.9326     
     26800  -21063.27       118.23319     -20945.036      48.494403      47.355255      131.9908     
     26900  -21057.715      118.48166     -20939.233      48.487912      47.347213      132.04899    
     27000  -21052.158      116.70607     -20935.452      48.480955      47.33793       132.10719    
     27100  -21048.051      114.86796     -20933.183      48.475341      47.329033      132.16539    
     27200  -21045.725      115.81611     -20929.909      48.470286      47.318929      132.22358    
     27300  -21041.331      117.64103     -20923.69       48.465844      47.3092        132.28178    
     27400  -21033.029      119.27519     -20913.754      48.461748      47.299848      132.33998    
     27500  -21023.739      117.35052     -20906.389      48.456539      47.290039      132.39818    
     27600  -21019.002      117.78815     -20901.214      48.451472      47.28145       132.45637    
     27700  -21017.99       118.93078     -20899.06       48.445338      47.271643      132.51457    
     27800  -21009.464      113.61845     -20895.846      48.440181      47.262871      132.57277    
     27900  -21004.836      116.39359     -20888.443      48.434331      47.252255      132.63096    
     28000  -20998.57       117.89282     -20880.677      48.42902       47.243214      132.68916    
     28100  -20993.697      119.49786     -20874.199      48.423107      47.235122      132.74736    
     28200  -20984.721      115.89343     -20868.828      48.416435      47.226407      132.80555    
     28300  -20978.171      116.5874      -20861.584      48.410992      47.21866       132.86375    
     28400  -20971.446      119.01163     -20852.434      48.405344      47.209619      132.92195    
     28500  -20967.113      120.07632     -20847.037      48.400271      47.200518      132.98014    
     28600  -20962.313      116.64485     -20845.668      48.395996      47.19205       133.03834    
     28700  -20958.271      116.9552      -20841.316      48.391024      47.18259       133.09654    
     28800  -20952.005      117.298       -20834.707      48.386259      47.173778      133.15474    
     28900  -20944.962      117.82711     -20827.135      48.381392      47.165533      133.21293    
     29000  -20938.913      119.16406     -20819.749      48.375743      47.156118      133.27113    
     29100  -20934.561      119.84274     -20814.718      48.371238      47.147407      133.32933    
     29200  -20930.804      117.3562      -20813.448      48.366542      47.137582      133.38752    
     29300  -20924.487      115.90922     -20808.578      48.361433      47.127978      133.44572    
     29400  -20915.926      116.13944     -20799.786      48.356071      47.119752      133.50392    
     29500  -20909.468      117.37889     -20792.089      48.350341      47.111479      133.56212    
     29600  -20906.346      119.83299     -20786.513      48.344531      47.102946      133.62031    
     29700  -20898.642      116.69799     -20781.944      48.339317      47.094536      133.67851    
     29800  -20893.296      116.11225     -20777.184      48.334043      47.08527       133.73671    
     29900  -20888.226      116.56754     -20771.659      48.329081      47.075856      133.7949     
     30000  -20880.596      116.64679     -20763.949      48.325012      47.067262      133.8531     
     30100  -20873.685      118.08194     -20755.604      48.319326      47.057606      133.9113     
     30200  -20868.756      118.80208     -20749.954      48.314589      47.050431      133.96949    
     30300  -20864.908      117.44297     -20747.465      48.308856      47.042135      134.02769    
     30400  -20860.198      115.89093     -20744.307      48.303714      47.033451      134.08589    
     30500  -20855.24       117.55809     -20737.682      48.29917       47.024922      134.14409    
     30600  -20848.491      118.53662     -20729.954      48.294145      47.015177      134.20228    
     30700  -20838.188      115.09517     -20723.093      48.28955       47.006668      134.26048    
     30800  -20835.707      118.83722     -20716.869      48.284042      46.99764       134.31868    
     30900  -20828.564      117.51895     -20711.045      48.278318      46.989214      134.37687    
     31000  -20824.93       118.71174     -20706.219      48.273058      46.980875      134.43507    
     31100  -20817.505      113.16272     -20704.342      48.267442      46.9713        134.49327    
     31200  -20811.852      113.63006     -20698.222      48.262527      46.962595      134.55146    
     31300  -20804.727      116.58246     -20688.145      48.257106      46.952929      134.60966    
     31400  -20797.259      116.9477      -20680.312      48.252468      46.944641      134.66786    
     31500  -20792.871      118.23347     -20674.638      48.247444      46.935933      134.72606    
     31600  -20787.9        116.5247      -20671.376      48.241861      46.925847      134.78425    
     31700  -20783.477      115.27272     -20668.204      48.238142      46.91739       134.84245    
     31800  -20775.928      115.38075     -20660.547      48.2332        46.906457      134.90065    
     31900  -20765.573      116.11233     -20649.461      48.229325      46.896987      134.95884    
     32000  -20762.384      118.65219     -20643.732      48.224883      46.887751      135.01704    
     32100  -20755.966      115.90992     -20640.056      48.219106      46.878081      135.07524    
     32200  -20751.704      115.95819     -20635.746      48.213647      46.870205      135.13343    
     32300  -20743.883      116.17397     -20627.709      48.207238      46.860879      135.19163    
     32400  -20734.614      117.06065     -20617.554      48.201836      46.852608      135.24983    
     32500  -20729.639      117.78601     -20611.853      48.196019      46.844171      135.30802    
     32600  -20724.969      116.88852     -20608.08       48.189562      46.834854      135.36622    
     32700  -20717.329      114.06981     -20603.259      48.184375      46.827144      135.42442    
     32800  -20713.388      119.08731     -20594.301      48.178042      46.817911      135.48262    
     32900  -20704.187      119.07476     -20585.113      48.172495      46.809265      135.54081    
     33000  -20699.845      117.80777     -20582.037      48.167423      46.800599      135.59901    
     33100  -20696.102      117.09698     -20579.005      48.16196       46.79103       135.65721    
     33200  -20690.297      116.46506     -20573.832      48.156999      46.782247      135.7154     
     33300  -20682.607      116.46229     -20566.145      48.150842      46.772619      135.7736     
     33400  -20675.256      118.87802     -20556.378      48.14543       46.763944      135.8318     
     33500  -20668.357      117.8572      -20550.499      48.139536      46.754755      135.88999    
     33600  -20665.583      119.5353      -20546.048      48.133334      46.745291      135.94819    
     33700  -20654.994      114.33891     -20540.655      48.127393      46.736371      136.00639    
     33800  -20650.625      115.85531     -20534.77       48.121664      46.726798      136.06459    
     33900  -20644.4        117.96679     -20526.434      48.116208      46.716701      136.12278    
     34000  -20636.55       119.3549      -20517.195      48.111586      46.706363      136.18098    
     34100  -20629.692      117.81988     -20511.872      48.106932      46.695815      136.23918    
     34200  -20627.569      117.05296     -20510.516      48.102603      46.685306      136.29737    
     34300  -20621.023      116.26175     -20504.761      48.098022      46.674537      136.35557    
     34400  -20614.298      117.44927     -20496.848      48.092976      46.664311      136.41377    
     34500  -20606.983      118.42424     -20488.559      48.087726      46.655559      136.47197    
     34600  -20599.847      119.44622     -20480.401      48.081225      46.646397      136.53016    
     34700  -20595.434      120.32505     -20475.109      48.074795      46.638169      136.58836    
     34800  -20590.429      117.22522     -20473.204      48.06746       46.629552      136.64656    
     34900  -20583.11       115.16859     -20467.941      48.060346      46.620721      136.70475    
     35000  -20574.559      114.56651     -20459.993      48.053703      46.612458      136.76295    
     35100  -20567.54       117.72964     -20449.811      48.047093      46.602177      136.82115    
     35200  -20561.23       118.37145     -20442.859      48.042338      46.592137      136.87934    
     35300  -20554.44       116.15179     -20438.288      48.036959      46.580447      136.93754    
     35400  -20551.783      117.6892      -20434.094      48.031463      46.56908       136.99574    
     35500  -20543.759      115.20562     -20428.553      48.026782      46.559246      137.05394    
     35600  -20539.095      117.66836     -20421.427      48.020628      46.54826       137.11213    
     35700  -20530.157      115.38603     -20414.771      48.015204      46.538704      137.17033    
     35800  -20525.899      117.63567     -20408.263      48.008901      46.528672      137.22853    
     35900  -20519.143      118.03288     -20401.11       48.00198       46.51853       137.28672    
     36000  -20511.164      119.54054     -20391.624      47.996127      46.509678      137.34492    
     36100  -20504.248      120.99685     -20383.251      47.988939      46.499454      137.40312    
     36200  -20497.236      115.361       -20381.875      47.982809      46.490284      137.46131    
     36300  -20495.179      117.74207     -20377.437      47.977405      46.480585      137.51951    
     36400  -20485.344      114.86743     -20370.477      47.971555      46.469131      137.57771    
     36500  -20479.492      118.51467     -20360.977      47.966466      46.459321      137.63591    
     36600  -20470.651      118.04309     -20352.608      47.959567      46.448786      137.6941     
     36700  -20467.226      119.37059     -20347.856      47.951972      46.438909      137.7523     
     36800  -20461.862      117.82405     -20344.038      47.944517      46.429401      137.8105     
     36900  -20457.705      119.23213     -20338.473      47.937241      46.419898      137.86869    
     37000  -20449.732      117.09593     -20332.636      47.930175      46.409997      137.92689    
     37100  -20440.932      116.30096     -20324.631      47.923647      46.400058      137.98509    
     37200  -20433.46       118.90772     -20314.552      47.917528      46.390044      138.04328    
     37300  -20427.384      120.78773     -20306.596      47.91116       46.379323      138.10148    
     37400  -20420.298      117.77626     -20302.522      47.905297      46.368928      138.15968    
     37500  -20414.958      117.16791     -20297.791      47.898823      46.35795       138.21787    
     37600  -20409.318      117.00718     -20292.311      47.892202      46.347322      138.27607    
     37700  -20404.597      118.41043     -20286.187      47.88598       46.337456      138.33427    
     37800  -20396.019      116.55432     -20279.464      47.878952      46.327401      138.39247    
     37900  -20390.465      119.38236     -20271.083      47.872179      46.318039      138.45066    
     38000  -20381.423      118.89307     -20262.53       47.864682      46.308227      138.50886    
     38100  -20376.64       119.72474     -20256.916      47.856092      46.297817      138.56706    
     38200  -20371.828      116.90638     -20254.922      47.848532      46.288391      138.62525    
     38300  -20365.199      116.36792     -20248.831      47.840407      46.277085      138.68345    
     38400  -20359.022      118.43488     -20240.587      47.833998      46.266587      138.74165    
     38500  -20349.542      117.71684     -20231.825      47.827927      46.255831      138.79985    
     38600  -20340.617      118.4263      -20222.191      47.821121      46.244337      138.85804    
     38700  -20333.708      120.83861     -20212.869      47.815565      46.234493      138.91624    
     38800  -20327.241      117.41749     -20209.824      47.807853      46.223343      138.97444    
     38900  -20323.096      116.47465     -20206.622      47.8003        46.212617      139.03263    
     39000  -20317.676      116.69409     -20200.982      47.793347      46.202935      139.09083    
     39100  -20310.529      116.12573     -20194.403      47.784933      46.191458      139.14903    
     39200  -20303.471      117.26821     -20186.203      47.777616      46.181449      139.20722    
     39300  -20295.712      118.9066      -20176.805      47.770477      46.171871      139.26542    
     39400  -20287.923      117.02854     -20170.894      47.762603      46.161015      139.32362    
     39500  -20285.745      116.56324     -20169.181      47.756131      46.150793      139.38182    
     39600  -20279.927      116.64697     -20163.28       47.749064      46.138777      139.44001    
     39700  -20272.996      117.64517     -20155.35       47.742646      46.127134      139.49821    
     39800  -20264.79       118.96754     -20145.823      47.73628       46.116323      139.55641    
     39900  -20256.064      118.45734     -20137.606      47.72791       46.105072      139.6146     
     40000  -20251.493      116.98084     -20134.512      47.720391      46.095181      139.6728     
     40100  -20247.223      115.72044     -20131.503      47.712591      46.084734      139.731      
     40200  -20238.66       115.51995     -20123.14       47.704596      46.072587      139.78919    
     40300  -20229.341      116.22399     -20113.117      47.698382      46.061509      139.84739    
     40400  -20222.383      117.11467     -20105.268      47.690286      46.049757      139.90559    
     40500  -20220.273      120.23438     -20100.038      47.682569      46.038673      139.96379    
     40600  -20215.252      117.65997     -20097.592      47.675746      46.028369      140.02198    
     40700  -20205.254      114.10878     -20091.145      47.667547      46.016446      140.08018    
     40800  -20198.71       116.08632     -20082.623      47.661376      46.005547      140.13838    
     40900  -20193.044      118.80625     -20074.238      47.654779      45.994681      140.19657    
     41000  -20182.797      116.6186      -20066.178      47.646843      45.983894      140.25477    
     41100  -20178          118.61542     -20059.385      47.638582      45.973882      140.31297    
     41200  -20170.298      114.56432     -20055.733      47.63042       45.963212      140.37116    
     41300  -20166.721      115.16901     -20051.552      47.622521      45.951891      140.42936    
     41400  -20156.998      113.95187     -20043.046      47.615453      45.940797      140.48756    
     41500  -20151.281      118.52377     -20032.757      47.608148      45.929063      140.54575    
     41600  -20142.907      117.14586     -20025.761      47.600484      45.91752       140.60395    
     41700  -20137.743      116.76529     -20020.978      47.592752      45.906718      140.66215    
     41800  -20130.624      114.25144     -20016.373      47.583585      45.895329      140.72035    
     41900  -20125.246      113.87464     -20011.371      47.575659      45.88534       140.77854    
     42000  -20120.213      114.6868      -20005.526      47.567169      45.875003      140.83674    
     42100  -20111.356      115.92893     -19995.427      47.558555      45.864456      140.89494    
     42200  -20101.041      115.33837     -19985.702      47.551629      45.854878      140.95313    
     42300  -20095.053      116.64932     -19978.404      47.543148      45.843085      141.01133    
     42400  -20093.072      119.30762     -19973.764      47.536367      45.832034      141.06953    
     42500  -20085.451      114.64187     -19970.809      47.52891       45.820477      141.12772    
     42600  -20079.159      115.88535     -19963.274      47.520477      45.808252      141.18592    
     42700  -20070.771      116.13762     -19954.633      47.513806      45.7984        141.24412    
     42800  -20064.331      117.95418     -19946.377      47.504243      45.786803      141.30232    
     42900  -20054.597      116.32246     -19938.274      47.495723      45.776316      141.36051    
     43000  -20047.911      116.43891     -19931.472      47.487771      45.767147      141.41871    
     43100  -20042.596      115.03495     -19927.561      47.477286      45.755794      141.47691    
     43200  -20037.127      114.19234     -19922.935      47.46959       45.746433      141.5351     
     43300  -20031.229      118.35864     -19912.871      47.461553      45.735563      141.5933     
     43400  -20021.165      117.33826     -19903.827      47.453297      45.722926      141.6515     
     43500  -20015.239      117.07464     -19898.165      47.447386      45.712066      141.7097     
     43600  -20010.215      116.77488     -19893.44       47.43919       45.699252      141.76789    
     43700  -20005.201      116.73832     -19888.463      47.43228       45.687888      141.82609    
     43800  -19997.894      114.71994     -19883.174      47.424981      45.676753      141.88429    
     43900  -19992.527      117.91156     -19874.615      47.415955      45.664312      141.94248    
     44000  -19980.579      116.90611     -19863.673      47.409023      45.65463       142.00068    
     44100  -19973.04       116.99463     -19856.046      47.400595      45.644369      142.05888    
     44200  -19966.547      115.49583     -19851.051      47.391569      45.633743      142.11707    
     44300  -19963.516      117.08765     -19846.429      47.383873      45.623599      142.17527    
     44400  -19957.562      114.84062     -19842.722      47.375481      45.611878      142.23347    
     44500  -19951.796      115.61376     -19836.182      47.368062      45.600112      142.29167    
     44600  -19940.645      116.288       -19824.357      47.361441      45.588976      142.34986    
     44700  -19934.819      118.72784     -19816.092      47.353995      45.577601      142.40806    
     44800  -19926.281      116.74436     -19809.536      47.34643       45.566768      142.46626    
     44900  -19921.128      116.49332     -19804.635      47.337664      45.556007      142.52445    
     45000  -19915.088      114.12076     -19800.967      47.328504      45.546031      142.58265    
     45100  -19905.868      113.37933     -19792.489      47.319595      45.535686      142.64085    
     45200  -19898.635      117.33544     -19781.3        47.310845      45.524514      142.69904    
     45300  -19891.889      117.87501     -19774.014      47.303192      45.513513      142.75724    
     45400  -19888.23       120.23746     -19767.993      47.295641      45.502241      142.81544    
     45500  -19879.09       115.75194     -19763.338      47.288427      45.490909      142.87364    
     45600  -19874.747      116.45372     -19758.293      47.281162      45.480195      142.93183    
     45700  -19867.776      116.04607     -19751.73       47.272615      45.469643      142.99003    
     45800  -19857.469      116.42714     -19741.042      47.263793      45.459816      143.04823    
     45900  -19850.155      118.23876     -19731.917      47.255044      45.450154      143.10642    
     46000  -19844.964      119.06377     -19725.9        47.246049      45.440311      143.16462    
     46100  -19837.451      115.03904     -19722.412      47.238022      45.430786      143.22282    
     46200  -19834.856      117.25934     -19717.597      47.229626      45.420869      143.28101    
     46300  -19825.348      115.46694     -19709.881      47.221641      45.41082       143.33921    
     46400  -19818.635      116.7719      -19701.863      47.21371       45.400888      143.39741    
     46500  -19810.007      116.08365     -19693.923      47.205669      45.390502      143.4556     
     46600  -19803.354      118.03506     -19685.319      47.197719      45.379068      143.5138     
     46700  -19796.163      120.70884     -19675.454      47.190847      45.368226      143.572      
     46800  -19786.872      119.44322     -19667.429      47.183591      45.357549      143.6302     
     46900  -19783.527      118.43707     -19665.09       47.175156      45.346963      143.68839    
     47000  -19777.022      116.3266      -19660.696      47.16722       45.337493      143.74659    
     47100  -19772.026      117.99361     -19654.033      47.159363      45.327427      143.80479    
     47200  -19762.022      116.99783     -19645.024      47.151263      45.317386      143.86298    
     47300  -19753.431      118.37425     -19635.057      47.143468      45.307246      143.92118    
     47400  -19749.218      121.09133     -19628.127      47.135421      45.296241      143.97938    
     47500  -19741.285      114.70627     -19626.579      47.129032      45.285722      144.03758    
     47600  -19735.111      114.77995     -19620.331      47.122491      45.275085      144.09577    
     47700  -19726.721      115.92151     -19610.799      47.114904      45.26379       144.15397    
     47800  -19720.214      118.78978     -19601.424      47.108084      45.253672      144.21217    
     47900  -19714.049      118.72142     -19595.328      47.100595      45.243233      144.27036    
     48000  -19706.7        115.31662     -19591.384      47.092565      45.232434      144.32856    
     48100  -19701.982      113.3359      -19588.646      47.085693      45.222768      144.38676    
     48200  -19698.077      113.78595     -19584.292      47.078046      45.212715      144.44495    
     48300  -19689.329      115.63283     -19573.696      47.070143      45.202694      144.50315    
     48400  -19677.656      115.41556     -19562.241      47.062977      45.19373       144.56135    
     48500  -19672.141      119.26735     -19552.873      47.054303      45.184176      144.61955    
     48600  -19664.314      118.16978     -19546.145      47.046569      45.175388      144.67774    
     48700  -19658.138      116.22638     -19541.912      47.03908       45.166313      144.73594    
     48800  -19653.522      116.57042     -19536.952      47.031146      45.156061      144.79414    
     48900  -19644.538      115.87603     -19528.662      47.024535      45.146374      144.85233    
     49000  -19635.164      118.53206     -19516.632      47.01737       45.1361        144.91053    
     49100  -19627.841      118.57208     -19509.269      47.010063      45.126254      144.96873    
     49200  -19622.016      118.03667     -19503.98       47.002371      45.117222      145.02692    
     49300  -19614.895      116.50153     -19498.393      46.99344       45.108063      145.08512    
     49400  -19610.898      118.02551     -19492.872      46.985949      45.099611      145.14332    
     49500  -19601.246      114.91666     -19486.33       46.978113      45.090896      145.20152    
     49600  -19596.841      118.14474     -19478.696      46.97011       45.081832      145.25971    
     49700  -19586.065      117.19226     -19468.873      46.962874      45.073256      145.31791    
     49800  -19578.78       118.49414     -19460.286      46.955378      45.064321      145.37611    
     49900  -19573.627      117.97701     -19455.65       46.948106      45.055682      145.4343     
     50000  -19570.615      118.66019     -19451.955      46.940247      45.046168      145.4925     
     50100  -19563.969      119.27678     -19444.693      46.93301       45.036592      145.5507     
     50200  -19551.603      114.99905     -19436.604      46.927317      45.027804      145.60889    
     50300  -19545.421      119.24757     -19426.173      46.920054      45.018487      145.66709    
     50400  -19536.867      120.91478     -19415.952      46.912404      45.009333      145.72529    
     50500  -19531.603      120.17919     -19411.424      46.905533      45.000978      145.78348    
     50600  -19524.509      117.6226      -19406.887      46.896796      44.991224      145.84168    
     50700  -19519.176      118.12026     -19401.055      46.890133      44.982685      145.89988    
     50800  -19509.75       114.38869     -19395.362      46.883749      44.973914      145.95808    
     50900  -19504.273      116.21097     -19388.062      46.875764      44.963615      146.01627    
     51000  -19497.198      119.75706     -19377.441      46.870746      44.955413      146.07447    
     51100  -19486.971      118.79296     -19368.178      46.863537      44.946476      146.13267    
     51200  -19482.09       118.67333     -19363.417      46.855072      44.938138      146.19086    
     51300  -19476.804      117.24565     -19359.559      46.848199      44.931764      146.24906    
     51400  -19468.729      116.10124     -19352.627      46.839325      44.923624      146.30726    
     51500  -19460.329      115.95737     -19344.372      46.832179      44.915606      146.36545    
     51600  -19454.338      119.32078     -19335.017      46.826352      44.90793       146.42365    
     51700  -19446.129      120.52437     -19325.605      46.818149      44.898795      146.48185    
     51800  -19439.429      119.36874     -19320.06       46.811578      44.891307      146.54005    
     51900  -19433.278      116.18346     -19317.094      46.804506      44.883327      146.59824    
     52000  -19425.884      115.11941     -19310.765      46.796509      44.874404      146.65644    
     52100  -19419.54       117.7044      -19301.836      46.790131      44.866409      146.71464    
     52200  -19411.1        119.19034     -19291.909      46.78326       44.857952      146.77283    
     52300  -19402.927      117.81199     -19285.115      46.776124      44.849129      146.83103    
     52400  -19398.691      116.04218     -19282.649      46.770264      44.841636      146.88923    
     52500  -19393.356      117.25124     -19276.105      46.762892      44.833667      146.94743    
     52600  -19382.823      116.31478     -19266.509      46.755681      44.825959      147.00562    
     52700  -19375.808      119.30032     -19256.508      46.749336      44.818214      147.06382    
     52800  -19368.555      118.44493     -19250.11       46.742586      44.809395      147.12202    
     52900  -19363.149      117.72334     -19245.426      46.737287      44.801273      147.18021    
     53000  -19356.405      118.07861     -19238.327      46.730696      44.792781      147.23841    
     53100  -19347.763      116.93923     -19230.824      46.723903      44.784928      147.29661    
     53200  -19338.344      115.72482     -19222.62       46.717177      44.77758       147.3548     
     53300  -19330.825      116.66658     -19214.159      46.709508      44.770007      147.413      
     53400  -19324.82       117.64571     -19207.174      46.702208      44.763252      147.4712     
     53500  -19321.806      118.3169      -19203.489      46.695112      44.756448      147.5294     
     53600  -19314.44       116.46176     -19197.979      46.688244      44.749705      147.58759    
     53700  -19305.984      116.29509     -19189.689      46.681159      44.743018      147.64579    
     53800  -19295.332      116.17989     -19179.152      46.673916      44.735858      147.70399    
     53900  -19288.636      120.54479     -19168.091      46.667156      44.72861       147.76218    
     54000  -19282.563      119.02763     -19163.535      46.660739      44.721206      147.82038    
     54100  -19276.874      117.05421     -19159.819      46.654594      44.713838      147.87858    
     54200  -19270.759      117.43025     -19153.329      46.648033      44.705841      147.93677    
     54300  -19264.468      118.24258     -19146.225      46.642535      44.698668      147.99497    
     54400  -19256.412      117.77285     -19138.639      46.63604       44.691288      148.05317    
     54500  -19249.864      119.08442     -19130.78       46.629175      44.683724      148.11137    
     54600  -19240.259      117.22529     -19123.034      46.62359       44.676591      148.16956    
     54700  -19235.262      118.93559     -19116.327      46.617001      44.668259      148.22776    
     54800  -19227.925      118.30599     -19109.619      46.611126      44.660846      148.28596    
     54900  -19218.838      115.54875     -19103.29       46.60546       44.653945      148.34415    
     55000  -19213.717      115.67525     -19098.041      46.598675      44.646636      148.40235    
     55100  -19208.746      116.76397     -19091.982      46.59261       44.639948      148.46055    
     55200  -19199.391      117.03273     -19082.358      46.586159      44.63312       148.51874    
     55300  -19188.488      117.85976     -19070.628      46.579021      44.626075      148.57694    
     55400  -19182.602      119.33618     -19063.266      46.572385      44.619056      148.63514    
     55500  -19175.762      116.90148     -19058.86       46.566799      44.612614      148.69333    
     55600  -19169.71       116.94162     -19052.769      46.559915      44.606093      148.75153    
     55700  -19160.498      115.4206      -19045.078      46.552883      44.599857      148.80973    
     55800  -19155.327      119.15197     -19036.175      46.546507      44.59401       148.86793    
     55900  -19147.225      120.69799     -19026.527      46.539159      44.587497      148.92612    
     56000  -19138.146      118.54201     -19019.604      46.532968      44.581478      148.98432    
     56100  -19135.733      119.44119     -19016.292      46.527476      44.575322      149.04252    
     56200  -19127.785      117.22321     -19010.562      46.520973      44.568099      149.10071    
     56300  -19120.297      117.07374     -19003.223      46.515884      44.561527      149.15891    
     56400  -19111.255      116.28057     -18994.974      46.510162      44.554201      149.21711    
     56500  -19103.602      119.05807     -18984.544      46.50404       44.546868      149.27531    
     56600  -19095.495      119.66069     -18975.834      46.498085      44.540134      149.3335     
     56700  -19088.714      116.3978      -18972.316      46.490871      44.533184      149.3917     
     56800  -19081.922      115.50749     -18966.414      46.485281      44.527553      149.4499     
     56900  -19076.484      118.33848     -18958.146      46.478594      44.521136      149.50809    
     57000  -19067.152      117.78574     -18949.367      46.472266      44.514767      149.56629    
     57100  -19057.477      117.03626     -18940.44       46.466654      44.509007      149.62449    
     57200  -19053.034      120.05553     -18932.979      46.458862      44.502361      149.68268    
     57300  -19045.278      116.02408     -18929.254      46.45322       44.497411      149.74088    
     57400  -19039.809      115.91994     -18923.89       46.446791      44.491402      149.79908    
     57500  -19030.787      115.06944     -18915.717      46.440194      44.484415      149.85728    
     57600  -19023.163      118.3142      -18904.849      46.436359      44.478177      149.91547    
     57700  -19014.988      120.13607     -18894.852      46.430669      44.470484      149.97367    
     57800  -19008.59       117.33231     -18891.257      46.425468      44.463678      150.03187    
     57900  -19004.327      117.55945     -18886.768      46.420232      44.457745      150.09006    
     58000  -18994.139      115.18896     -18878.95       46.412395      44.450971      150.14826    
     58100  -18986.687      117.2372      -18869.449      46.406901      44.445946      150.20646    
     58200  -18978.883      118.65579     -18860.228      46.400755      44.440248      150.26465    
     58300  -18974.58       120.8851      -18853.695      46.39418       44.433744      150.32285    
     58400  -18966.225      116.24189     -18849.983      46.389143      44.42819       150.38105    
     58500  -18956.449      113.64359     -18842.805      46.382125      44.421614      150.43924    
     58600  -18950.396      117.44026     -18832.956      46.37647       44.416015      150.49744    
     58700  -18941.322      119.15737     -18822.165      46.370866      44.409927      150.55564    
     58800  -18933.726      120.59611     -18813.13       46.365132      44.402951      150.61384    
     58900  -18928.423      118.18077     -18810.242      46.360548      44.396473      150.67203    
     59000  -18922.532      117.50158     -18805.03       46.354925      44.389807      150.73023    
     59100  -18914.416      116.6604      -18797.755      46.349122      44.383434      150.78843    
     59200  -18906.132      116.26701     -18789.865      46.343996      44.377749      150.84662    
     59300  -18896.947      115.38548     -18781.561      46.337345      44.371317      150.90482    
     59400  -18890.236      118.90271     -18771.333      46.331369      44.36557       150.96302    
     59500  -18881.333      119.60595     -18761.727      46.325991      44.360077      151.02121    
     59600  -18875.014      117.74814     -18757.266      46.319214      44.353925      151.07941    
     59700  -18866.808      115.14764     -18751.661      46.313531      44.34887       151.13761    
     59800  -18860.178      116.25343     -18743.925      46.306272      44.343192      151.19581    
     59900  -18852.638      117.86633     -18734.772      46.299227      44.337794      151.254      
     60000  -18844.644      119.29757     -18725.346      46.294099      44.332736      151.3122     
     60100  -18832.894      114.75478     -18718.139      46.287268      44.325869      151.3704     
     60200  -18832.396      118.60792     -18713.788      46.283335      44.320256      151.42859    
     60300  -18825.587      118.42804     -18707.159      46.278488      44.314024      151.48679    
     60400  -18816.871      117.70581     -18699.165      46.273049      44.307799      151.54499    
     60500  -18809.114      118.94087     -18690.173      46.268729      44.302312      151.60318    
     60600  -18798.88       118.32184     -18680.558      46.262253      44.295196      151.66138    
     60700  -18789.32       116.05638     -18673.263      46.2577        44.289278      151.71958    
     60800  -18783.793      115.24816     -18668.545      46.251486      44.282938      151.77778    
     60900  -18777.806      115.73057     -18662.075      46.245097      44.277193      151.83597    
     61000  -18772.279      118.67352     -18653.605      46.239432      44.272519      151.89417    
     61100  -18760.275      117.74609     -18642.528      46.232256      44.26687       151.95237    
     61200  -18749.652      119.50689     -18630.145      46.226509      44.261712      152.01056    
     61300  -18744.446      120.50311     -18623.943      46.219991      44.255821      152.06876    
     61400  -18738.206      119.32617     -18618.88       46.21444       44.250597      152.12696    
     61500  -18729.383      116.58328     -18612.8        46.20847       44.245059      152.18516    
     61600  -18722.317      115.64716     -18606.67       46.202203      44.239232      152.24335    
     61700  -18720.209      120.60386     -18599.605      46.19673       44.234314      152.30155    
     61800  -18710.615      118.06927     -18592.546      46.190495      44.22838       152.35975    
     61900  -18700.256      114.8586      -18585.398      46.18507       44.222699      152.41794    
     62000  -18693.507      116.7673      -18576.74       46.180486      44.217146      152.47614    
     62100  -18682.073      116.09636     -18565.976      46.174416      44.210429      152.53434    
     62200  -18674.195      119.00937     -18555.185      46.169981      44.204952      152.59253    
     62300  -18666.031      116.96507     -18549.066      46.163722      44.198888      152.65073    
     62400  -18660.621      117.07424     -18543.546      46.157078      44.193039      152.70893    
     62500  -18650.989      115.72071     -18535.268      46.151948      44.188133      152.76713    
     62600  -18644.803      116.63579     -18528.168      46.144949      44.182266      152.82532    
     62700  -18637.214      115.49671     -18521.718      46.139207      44.177882      152.88352    
     62800  -18629.536      113.72511     -18515.811      46.132847      44.172793      152.94172    
     62900  -18621.67       112.62275     -18509.047      46.126636      44.167154      152.99991    
     63000  -18614.353      116.72821     -18497.625      46.121791      44.161763      153.05811    
     63100  -18601.709      117.29379     -18484.415      46.115379      44.154842      153.11631    
     63200  -18595.282      119.60354     -18475.678      46.110491      44.149471      153.1745     
     63300  -18586.761      116.52208     -18470.239      46.104181      44.143593      153.2327     
     63400  -18579.257      116.18987     -18463.067      46.097902      44.138129      153.2909     
     63500  -18571.154      117.07409     -18454.08       46.092222      44.133278      153.3491     
     63600  -18564.188      117.42596     -18446.762      46.085493      44.127339      153.40729    
     63700  -18558.122      116.71308     -18441.409      46.080565      44.122154      153.46549    
     63800  -18548.733      115.46086     -18433.272      46.074427      44.116442      153.52369    
     63900  -18539.728      117.46721     -18422.261      46.068711      44.111192      153.58188    
     64000  -18531.092      119.11889     -18411.973      46.062785      44.105418      153.64008    
     64100  -18520.674      116.94333     -18403.731      46.057717      44.099638      153.69828    
     64200  -18513.396      116.52771     -18396.868      46.052416      44.093453      153.75647    
     64300  -18504.681      115.30415     -18389.377      46.046514      44.087493      153.81467    
     64400  -18498.491      115.62872     -18382.863      46.040527      44.081956      153.87287    
     64500  -18487.588      109.39462     -18378.194      46.033931      44.076154      153.93106    
     64600  -18480.929      114.71503     -18366.214      46.028383      44.070966      153.98926    
     64700  -18469.238      115.63972     -18353.599      46.022334      44.065279      154.04746    
     64800  -18462.069      118.75715     -18343.312      46.016227      44.059417      154.10566    
     64900  -18452.322      118.20095     -18334.121      46.011018      44.054086      154.16385    
     65000  -18446.273      116.78307     -18329.49       46.004686      44.048303      154.22205    
     65100  -18437.948      116.47196     -18321.476      45.998993      44.042978      154.28025    
     65200  -18427.736      117.17782     -18310.559      45.993429      44.037382      154.33844    
     65300  -18416.693      116.83831     -18299.855      45.987181      44.031332      154.39664    
     65400  -18411.316      118.06536     -18293.251      45.981521      44.026142      154.45484    
     65500  -18402.18       115.13515     -18287.045      45.975215      44.020716      154.51304    
     65600  -18393.182      117.05746     -18276.125      45.969134      44.0159        154.57123    
     65700  -18383.03       118.89009     -18264.139      45.962253      44.010832      154.62943    
     65800  -18372.475      120.4496      -18252.026      45.955542      44.005677      154.68763    
     65900  -18362.759      119.64826     -18243.111      45.949986      44.000652      154.74582    
     66000  -18358.36       120.91497     -18237.445      45.94354       43.993996      154.80402    
     66100  -18347.228      117.53651     -18229.691      45.938967      43.988384      154.86222    
     66200  -18338.259      116.34118     -18221.918      45.932807      43.981772      154.92041    
     66300  -18329.695      116.39644     -18213.298      45.927648      43.975767      154.97861    
     66400  -18320.821      117.22919     -18203.592      45.922715      43.96968       155.03681    
     66500  -18310.782      115.59255     -18195.19       45.917196      43.963334      155.09501    
     66600  -18304.87       116.85682     -18188.014      45.912049      43.957555      155.1532     
     66700  -18294.739      116.71577     -18178.023      45.905905      43.951447      155.2114     
     66800  -18283.2        118.54641     -18164.654      45.900085      43.946006      155.2696     
     66900  -18269.765      118.89948     -18150.866      45.893409      43.940661      155.32779    
     67000  -18263.864      120.63071     -18143.234      45.886218      43.935573      155.38599    
     67100  -18255.668      119.67997     -18135.988      45.879972      43.930952      155.44419    
     67200  -18246.147      118.78308     -18127.364      45.873302      43.925634      155.50238    
     67300  -18234.127      114.96857     -18119.158      45.86719       43.920526      155.56058    
     67400  -18226.395      115.5819      -18110.813      45.861014      43.915092      155.61878    
     67500  -18216.273      114.93022     -18101.343      45.854952      43.909388      155.67697    
     67600  -18208.652      116.78392     -18091.868      45.849212      43.903571      155.73517    
     67700  -18200.551      115.98222     -18084.569      45.84322       43.897739      155.79337    
     67800  -18191.965      117.47347     -18074.491      45.837371      43.89225       155.85157    
     67900  -18180.089      118.7667      -18061.322      45.830837      43.886322      155.90976    
     68000  -18165.018      119.4498      -18045.568      45.824784      43.880942      155.96796    
     68100  -18154.986      119.67222     -18035.314      45.81817       43.875307      156.02616    
     68200  -18149.443      121.79436     -18027.649      45.811823      43.869798      156.08435    
     68300  -18139.607      120.77046     -18018.837      45.806123      43.864304      156.14255    
     68400  -18128.444      117.31656     -18011.128      45.799672      43.858307      156.20075    
     68500  -18118.42       116.75117     -18001.669      45.794572      43.853054      156.25895    
     68600  -18108.245      115.30947     -17992.935      45.788051      43.846934      156.31714    
     68700  -18098.296      115.48322     -17982.813      45.781892      43.841318      156.37534    
     68800  -18089.135      116.97619     -17972.158      45.775865      43.836035      156.43354    
     68900  -18081.75       118.24644     -17963.503      45.768959      43.829917      156.49173    
     69000  -18069.522      114.86627     -17954.655      45.763533      43.824737      156.54993    
     69100  -18060.026      117.67701     -17942.349      45.756595      43.818573      156.60813    
     69200  -18047.643      117.32687     -17930.316      45.75094       43.813323      156.66632    
     69300  -18037.159      116.90969     -17920.25       45.744369      43.807806      156.72452    
     69400  -18030.276      119.89711     -17910.378      45.73744       43.802545      156.78272    
     69500  -18016.954      117.54436     -17899.41       45.731071      43.797931      156.84091    
     69600  -18007.541      118.7327      -17888.809      45.723434      43.792095      156.89911    
     69700  -17997.086      119.22396     -17877.862      45.718137      43.78716       156.95731    
     69800  -17985.17       118.91506     -17866.255      45.711083      43.780844      157.01551    
     69900  -17974.19       118.97432     -17855.215      45.704754      43.77517       157.0737     
     70000  -17963.643      118.2985      -17845.344      45.699075      43.76998       157.1319     
     70100  -17954.654      119.86952     -17834.785      45.691913      43.76358       157.1901     
     70200  -17943.04       118.1645      -17824.876      45.687102      43.758407      157.24829    
     70300  -17932.776      118.50773     -17814.269      45.680445      43.751822      157.30649    
     70400  -17921.07       117.79553     -17803.275      45.674574      43.745658      157.36469    
     70500  -17909.145      117.54378     -17791.602      45.668983      43.739722      157.42289    
     70600  -17899.911      119.14802     -17780.763      45.662015      43.733023      157.48108    
     70700  -17886.886      117.69739     -17769.188      45.656503      43.727667      157.53928    
     70800  -17878.566      120.36381     -17758.202      45.649291      43.721981      157.59748    
     70900  -17865.948      118.71667     -17747.232      45.642186      43.717007      157.65567    
     71000  -17853.697      117.36425     -17736.332      45.635389      43.712116      157.71387    
     71100  -17845.119      119.23111     -17725.888      45.62806       43.706707      157.77207    
     71200  -17835.478      120.39447     -17715.083      45.621984      43.701948      157.83026    
     71300  -17822.186      118.29953     -17703.886      45.614781      43.696398      157.88846    
     71400  -17810.396      118.22031     -17692.176      45.607941      43.690919      157.94666    
     71500  -17800.168      119.79835     -17680.37       45.601756      43.685424      158.00486    
     71600  -17788.865      120.35075     -17668.515      45.594368      43.679091      158.06305    
     71700  -17780.238      122.87645     -17657.362      45.58853       43.673725      158.12125    
     71800  -17766.627      121.13114     -17645.496      45.581997      43.667708      158.17945    
     71900  -17753.793      120.42257     -17633.371      45.575612      43.66156       158.23764    
     72000  -17740.473      117.96483     -17622.508      45.570244      43.656147      158.29584    
     72100  -17730.611      119.69041     -17610.921      45.562703      43.649389      158.35404    
     72200  -17717.733      118.16818     -17599.564      45.557121      43.643797      158.41223    
     72300  -17710.396      122.41169     -17587.984      45.550488      43.63753       158.47043    
     72400  -17699.023      121.01862     -17578.004      45.543859      43.631276      158.52863    
     72500  -17686.362      121.00007     -17565.362      45.538359      43.626016      158.58683    
     72600  -17672.306      119.01426     -17553.292      45.530715      43.619454      158.64502    
     72700  -17663.289      122.69939     -17540.59       45.524819      43.614294      158.70322    
     72800  -17651.544      124.04122     -17527.503      45.517654      43.608481      158.76142    
     72900  -17637.003      121.48742     -17515.516      45.51071       43.602719      158.81961    
     73000  -17623.796      120.11877     -17503.678      45.504794      43.597804      158.87781    
     73100  -17612.444      120.94023     -17491.504      45.496744      43.591652      158.93601    
     73200  -17600.633      122.01163     -17478.621      45.490436      43.5868        158.9942     
[...]
    181600  -21589.365      119.00623     -21470.359      51.263932      38.071357      222.07975    
    181700  -21592.005      121.20646     -21470.799      51.262489      38.062878      222.13795    
    181800  -21591.297      117.46729     -21473.83       51.259453      38.05386       222.19615    
    181900  -21591.406      115.48238     -21475.923      51.25688       38.045979      222.25434    
    182000  -21590.686      117.07154     -21473.615      51.253039      38.036746      222.31254    
    182100  -21587.581      118.04828     -21469.532      51.24989       38.027202      222.37074    
    182200  -21587.998      118.14837     -21469.85       51.247225      38.016502      222.42893    
    182300  -21590.411      118.05247     -21472.359      51.244418      38.005571      222.48713    
    182400  -21593.789      119.28842     -21474.501      51.242047      37.994724      222.54533    
    182500  -21589.395      115.20176     -21474.193      51.239923      37.983356      222.60352    
    182600  -21587.149      118.36374     -21468.785      51.239404      37.973337      222.66172    
    182700  -21587.879      119.8246      -21468.055      51.239554      37.96417       222.71992    
    182800  -21589.296      118.54666     -21470.749      51.239184      37.955527      222.77812    
    182900  -21588.819      115.55354     -21473.266      51.238609      37.945584      222.83631    
    183000  -21591.113      117.5352      -21473.578      51.238547      37.93602       222.89451    
    183100  -21590.308      117.95461     -21472.354      51.237901      37.925487      222.95271    
    183200  -21588.899      121.30613     -21467.593      51.236006      37.913324      223.0109     
    183300  -21585.347      119.80588     -21465.541      51.234292      37.900843      223.0691     
    183400  -21587.041      118.58839     -21468.453      51.231789      37.888547      223.1273     
    183500  -21590.129      118.90279     -21471.227      51.230731      37.877304      223.1855     
    183600  -21586.961      114.43699     -21472.524      51.22999       37.864942      223.24369    
    183700  -21589.134      116.67697     -21472.457      51.23011       37.853611      223.30189    
    183800  -21589.825      120.47551     -21469.35       51.230621      37.842734      223.36009    
    183900  -21587.016      120.51467     -21466.501      51.230905      37.830461      223.41828    
    184000  -21588.62       119.82544     -21468.794      51.231262      37.818316      223.47648    
    184100  -21588.879      117.11678     -21471.762      51.229148      37.805482      223.53468    
    184200  -21587.043      114.89569     -21472.148      51.227023      37.791614      223.59287    
    184300  -21589.11       117.49431     -21471.616      51.225853      37.776983      223.65107    
    184400  -21590.639      120.04919     -21470.59       51.224155      37.762926      223.70927    
    184500  -21588.049      120.14059     -21467.909      51.222431      37.749631      223.76747    
    184600  -21586.289      119.27079     -21467.018      51.220743      37.735812      223.82566    
    184700  -21590.092      118.78685     -21471.305      51.220282      37.723061      223.88386    
    184800  -21589.431      116.24249     -21473.188      51.219574      37.709895      223.94206    
    184900  -21589.235      116.56409     -21472.671      51.218908      37.696798      224.00025    
    185000  -21588.215      117.76852     -21470.447      51.21819       37.683882      224.05845    
    185100  -21585.015      117.75785     -21467.257      51.217717      37.670767      224.11665    
    185200  -21585.867      118.63655     -21467.23       51.21782       37.65795       224.17484    
    185300  -21589.084      116.16034     -21472.924      51.217879      37.644833      224.23304    
    185400  -21589.628      115.73243     -21473.896      51.21819       37.631394      224.29124    
    185500  -21589.32       116.90633     -21472.414      51.219167      37.618392      224.34944    
    185600  -21588.902      119.13412     -21469.768      51.218831      37.606269      224.40763    
    185700  -21587.677      119.54537     -21468.131      51.217222      37.593781      224.46583    
    185800  -21588.34       118.46208     -21469.878      51.216869      37.580866      224.52403    
    185900  -21590.316      116.00736     -21474.308      51.216611      37.568468      224.58222    
    186000  -21588.337      114.06781     -21474.27       51.216788      37.55693       224.64042    
    186100  -21588.039      116.78094     -21471.258      51.215295      37.544139      224.69862    
    186200  -21587.424      118.22463     -21469.199      51.214198      37.531332      224.75681    
    186300  -21586.489      117.04509     -21469.444      51.214549      37.518801      224.81501    
    186400  -21588.502      117.82754     -21470.675      51.213366      37.505116      224.87321    
    186500  -21588.256      116.84096     -21471.415      51.212936      37.491467      224.9314     
    186600  -21587.978      116.61395     -21471.364      51.212383      37.478158      224.9896     
    186700  -21586.103      114.66217     -21471.441      51.211341      37.465532      225.0478     
    186800  -21589.432      118.07569     -21471.356      51.208304      37.451864      225.106      
    186900  -21586.989      116.23126     -21470.757      51.205707      37.439027      225.16419    
    187000  -21587.985      118.42291     -21469.562      51.204714      37.426691      225.22239    
    187100  -21587.075      118.33214     -21468.743      51.204145      37.413917      225.28059    
    187200  -21591.028      120.29657     -21470.732      51.20457       37.402924      225.33878    
    187300  -21588.659      114.49508     -21474.164      51.203842      37.390658      225.39698    
    187400  -21588.834      114.22812     -21474.606      51.203771      37.377881      225.45518    
    187500  -21585.642      114.14176     -21471.5        51.200837      37.363616      225.51337    
    187600  -21588.374      119.83948     -21468.535      51.197281      37.351571      225.57157    
    187700  -21586.651      117.33288     -21469.319      51.192978      37.339092      225.62977    
    187800  -21588.92       116.98269     -21471.938      51.187338      37.324794      225.68797    
    187900  -21591.468      117.17399     -21474.294      51.182736      37.311955      225.74616    
    188000  -21588.904      114.66682     -21474.238      51.177334      37.300641      225.80436    
    188100  -21588.694      119.26287     -21469.431      51.176644      37.290844      225.86256    
    188200  -21586.687      118.62035     -21468.067      51.175628      37.279467      225.92075    
    188300  -21588.003      117.97174     -21470.031      51.173459      37.268543      225.97895    
    188400  -21588.975      116.38037     -21472.595      51.171644      37.258487      226.03715    
    188500  -21590.427      117.03693     -21473.39       51.167117      37.244921      226.09535    
    188600  -21588.053      116.61005     -21471.442      51.164631      37.231622      226.15354    
    188700  -21585.988      119.3778      -21466.611      51.159425      37.216316      226.21174    
    188800  -21588.722      120.87414     -21467.848      51.15635       37.202534      226.26994    
    188900  -21590.945      120.05591     -21470.89       51.151418      37.188309      226.32813    
    189000  -21588.851      116.29685     -21472.555      51.147863      37.174967      226.38633    
    189100  -21589.316      116.6835      -21472.633      51.146424      37.164314      226.44453    
    189200  -21587.731      116.64851     -21471.082      51.144022      37.152798      226.50272    
    189300  -21585.24       119.2635      -21465.977      51.144693      37.143526      226.56092    
    189400  -21585.15       119.78991     -21465.36       51.142888      37.132552      226.61912    
    189500  -21586.695      117.9968      -21468.699      51.143062      37.12253       226.67732    
    189600  -21587.304      116.19283     -21471.111      51.140452      37.110751      226.73551    
    189700  -21588.824      116.1531      -21472.671      51.137095      37.099006      226.79371    
    189800  -21589.979      116.90916     -21473.07       51.133771      37.087223      226.85191    
    189900  -21586.894      117.30124     -21469.593      51.128866      37.075777      226.9101     
    190000  -21585.503      118.6657      -21466.837      51.126605      37.066225      226.9683     
    190100  -21588.118      119.17708     -21468.941      51.122988      37.055075      227.0265     
    190200  -21589.918      118.39864     -21471.52       51.12093       37.046589      227.08469    
    190300  -21587.688      115.56509     -21472.123      51.119947      37.038729      227.14289    
    190400  -21587.819      115.62171     -21472.197      51.120009      37.031044      227.20109    
    190500  -21589.892      119.24364     -21470.649      51.120239      37.023325      227.25929    
    190600  -21587.144      120.35228     -21466.792      51.118847      37.016029      227.31748    
    190700  -21587.8        120.91673     -21466.883      51.11775       37.008591      227.37568    
    190800  -21588.401      117.15847     -21471.242      51.115928      36.999012      227.43388    
    190900  -21587.962      115.53228     -21472.43       51.112884      36.989118      227.49207    
    191000  -21588.618      117.07202     -21471.546      51.108065      36.978168      227.55027    
    191100  -21588.902      119.22382     -21469.678      51.104803      36.967525      227.60847    
    191200  -21587.186      119.1256      -21468.061      51.101574      36.95666       227.66666    
    191300  -21587.146      118.34753     -21468.798      51.09826       36.946325      227.72486    
    191400  -21589.801      116.82102     -21472.98       51.096539      36.937782      227.78306    
    191500  -21591.498      117.15627     -21474.342      51.095402      36.929417      227.84125    
    191600  -21588.141      114.83422     -21473.307      51.095005      36.922728      227.89945    
    191700  -21585.752      116.52173     -21469.23       51.093925      36.91561       227.95765    
    191800  -21587.295      119.16874     -21468.126      51.094941      36.909029      228.01585    
    191900  -21588.412      118.92566     -21469.486      51.093961      36.901198      228.07404    
    192000  -21588.736      117.58843     -21471.147      51.091575      36.892413      228.13224    
    192100  -21587.715      115.25692     -21472.458      51.087557      36.883151      228.19044    
    192200  -21589.394      116.13621     -21473.258      51.084652      36.874097      228.24863    
    192300  -21592.664      117.76572     -21474.898      51.08315       36.864742      228.30683    
    192400  -21590.504      114.94825     -21475.556      51.08028       36.854755      228.36503    
    192500  -21589.244      116.67556     -21472.568      51.078129      36.846468      228.42323    
    192600  -21587.334      117.58761     -21469.746      51.077646      36.838608      228.48142    
    192700  -21586.89       117.1429      -21469.747      51.078748      36.831702      228.53962    
    192800  -21585.176      112.75626     -21472.419      51.078462      36.825154      228.59782    
    192900  -21592.158      115.73451     -21476.423      51.07799       36.81946       228.65601    
    193000  -21587.586      111.83887     -21475.748      51.077418      36.812119      228.71421    
    193100  -21590.887      117.3902      -21473.497      51.075635      36.803213      228.77241    
    193200  -21587.856      116.42211     -21471.434      51.072941      36.794566      228.8306     
    193300  -21588.574      118.46116     -21470.113      51.070137      36.785583      228.8888     
    193400  -21588.346      118.94862     -21469.397      51.06641       36.777093      228.947      
    193500  -21588.08       117.06373     -21471.016      51.062863      36.767364      229.0052     
    193600  -21588.508      114.2812      -21474.227      51.061549      36.759275      229.06339    
    193700  -21590.52       115.75158     -21474.769      51.061289      36.753159      229.12159    
    193800  -21589.689      118.15449     -21471.535      51.060931      36.74701       229.17979    
    193900  -21586.673      118.00573     -21468.667      51.060268      36.740179      229.23798    
    194000  -21587.476      118.06817     -21469.408      51.059457      36.733405      229.29618    
    194100  -21591.612      120.49664     -21471.116      51.058309      36.727229      229.35438    
    194200  -21589.975      117.02306     -21472.952      51.055577      36.718837      229.41257    
    194300  -21590.295      116.48765     -21473.808      51.052044      36.70997       229.47077    
    194400  -21589.515      118.3421      -21471.173      51.048855      36.703231      229.52897    
    194500  -21587.117      119.7742      -21467.342      51.044191      36.696656      229.58717    
    194600  -21586.397      118.05831     -21468.339      51.041336      36.689636      229.64536    
    194700  -21588.186      116.12222     -21472.064      51.039266      36.682269      229.70356    
    194800  -21589.146      115.4253      -21473.72       51.038032      36.67702       229.76176    
    194900  -21589.489      116.55213     -21472.936      51.036001      36.670971      229.81995    
    195000  -21589.622      120.12321     -21469.499      51.034626      36.663176      229.87815    
    195100  -21584.718      118.23469     -21466.484      51.031444      36.655572      229.93635    
    195200  -21590.798      121.68954     -21469.108      51.028508      36.647762      229.99454    
    195300  -21589.349      117.12287     -21472.226      51.026184      36.638913      230.05274    
    195400  -21588.716      116.07285     -21472.643      51.023451      36.630549      230.11094    
    195500  -21590.356      117.80117     -21472.555      51.020872      36.623828      230.16914    
    195600  -21589.07       117.12229     -21471.948      51.01814       36.617523      230.22733    
    195700  -21588.411      117.92934     -21470.482      51.014973      36.6113        230.28553    
    195800  -21587.683      118.13285     -21469.55       51.012578      36.605997      230.34373    
    195900  -21588.586      116.85085     -21471.735      51.010484      36.600092      230.40192    
    196000  -21592.798      117.69831     -21475.1        51.007166      36.593721      230.46012    
    196100  -21591.371      115.8705      -21475.501      51.001924      36.586858      230.51832    
    196200  -21590.13       118.15296     -21471.977      50.998306      36.580506      230.57651    
    196300  -21587.146      117.40843     -21469.738      50.993497      36.572479      230.63471    
    196400  -21590.156      119.47578     -21470.68       50.989251      36.566033      230.69291    
    196500  -21589.033      116.2984      -21472.735      50.983932      36.560749      230.7511     
    196600  -21590.423      115.6885      -21474.735      50.980806      36.555791      230.8093     
    196700  -21591.758      116.4778      -21475.28       50.977951      36.550664      230.8675     
    196800  -21590          118.30461     -21471.696      50.974298      36.545088      230.9257     
    196900  -21588.741      119.82323     -21468.918      50.972793      36.539304      230.98389    
    197000  -21587.55       117.83834     -21469.711      50.970962      36.531769      231.04209    
    197100  -21589.974      116.49824     -21473.476      50.967866      36.524765      231.10029    
    197200  -21590.924      116.39067     -21474.533      50.964744      36.518666      231.15848    
    197300  -21589.03       115.88798     -21473.142      50.963799      36.512499      231.21668    
    197400  -21590.301      118.45106     -21471.85       50.963265      36.506959      231.27488    
    197500  -21586.861      115.58893     -21471.272      50.963071      36.503136      231.33308    
    197600  -21589.065      117.93387     -21471.132      50.963416      36.498925      231.39127    
    197700  -21588.053      116.44321     -21471.61       50.963963      36.494863      231.44947    
    197800  -21589.378      117.06685     -21472.311      50.963369      36.491004      231.50767    
    197900  -21586.278      114.08182     -21472.196      50.96183       36.486776      231.56586    
    198000  -21590.185      119.28497     -21470.9        50.959233      36.481954      231.62406    
    198100  -21586.564      117.69782     -21468.866      50.955103      36.477253      231.68226    
    198200  -21586.97       119.41706     -21467.553      50.952509      36.473554      231.74045    
    198300  -21587.896      117.35072     -21470.545      50.949115      36.469951      231.79865    
    198400  -21590.671      116.63662     -21474.034      50.944383      36.466565      231.85685    
    198500  -21587.364      113.74375     -21473.62       50.941196      36.464476      231.91505    
    198600  -21590.664      120.04578     -21470.618      50.940921      36.462938      231.97324    
    198700  -21588.085      119.31977     -21468.765      50.940318      36.461384      232.03144    
    198800  -21586.268      116.56831     -21469.7        50.937431      36.45982       232.08964    
    198900  -21589.604      118.74988     -21470.854      50.936386      36.457695      232.14783    
    199000  -21589.194      117.46617     -21471.727      50.935443      36.454757      232.20603    
    199100  -21589.763      117.24331     -21472.52       50.930621      36.450621      232.26423    
    199200  -21588.552      114.71278     -21473.839      50.925785      36.447315      232.32242    
    199300  -21588.957      113.53534     -21475.422      50.92217       36.443256      232.38062    
    199400  -21593.463      119.19258     -21474.271      50.919388      36.439575      232.43882    
    199500  -21589.984      119.56121     -21470.422      50.916722      36.438061      232.49702    
    199600  -21586.949      117.68949     -21469.26       50.917421      36.437434      232.55521    
    199700  -21588.393      117.32561     -21471.068      50.92196       36.435442      232.61341    
    199800  -21590.449      116.43284     -21474.016      50.924359      36.433151      232.67161    
    199900  -21590.206      116.4372      -21473.769      50.925174      36.432794      232.7298     
    200000  -21587.865      115.28681     -21472.578      50.926736      36.432888      232.788      
Loop time of 2998.19 on 8 procs for 200000 steps with 3024 atoms

Performance: 5.763 ns/day, 4.164 hours/ns, 66.707 timesteps/s
92.2% CPU use with 8 MPI tasks x 1 OpenMP threads

MPI task timing breakdown:
Section |  min time  |  avg time  |  max time  |%varavg| %total
---------------------------------------------------------------
Pair    | 796.45     | 1527.5     | 2419.1     |1569.8 | 50.95
Neigh   | 4.4037     | 11.166     | 16.369     | 133.1 |  0.37
Comm    | 492.59     | 1135.6     | 1861.7     |1303.5 | 37.88
Output  | 1.0441     | 1.0647     | 1.2069     |   5.2 |  0.04
Modify  | 65.498     | 318.67     | 982.97     |2103.0 | 10.63
Other   |            | 4.19       |            |       |  0.14

Nlocal:            378 ave        1138 max           4 min
Histogram: 2 0 4 0 0 0 0 1 0 1
Nghost:           1818 ave        4417 max         204 min
Histogram: 1 2 1 1 1 0 0 1 0 1
Neighs:              0 ave           0 max           0 min
Histogram: 8 0 0 0 0 0 0 0 0 0

Total # of neighbors = 0
Ave neighs/atom = 0
Neighbor list builds = 1108
Dangerous builds = 0
Total wall time: 0:49:58
