ITEM: TIMESTEP
0
ITEM: NUMBER OF ATOMS
2928
ITEM: BOX BOUNDS pp pp pp
-2.5000000000000000e+01 2.5000000000000000e+01
-2.5000000000000000e+01 2.5000000000000000e+01
-6.0621800000000003e-01 1.1093785400000000e+02
ITEM: ATOMS type x y z f_avestress[1] f_avestress[2] f_avestress[3] f_avestress[4] f_avestress[5] f_avestress[6]
3 -4.0112 -6.93889 0.00305396 0 0 0 0 0 0
3 -3.39188 -7.26162 1.21615 0 0 0 0 0 0
3 -1.39384 -7.89654 0.000903083 0 0 0 0 0 0
3 -2.07677 -7.74325 1.21352 0 0 0 0 0 0
3 0.000310246 -8.01911 6.17614e-05 0 0 0 0 0 0
3 0.698174 -7.98861 1.21253 0 0 0 0 0 0
3 2.74253 -7.53595 -0.000480754 0 0 0 0 0 0
3 2.07617 -7.74597 1.21222 0 0 0 0 0 0
3 4.01082 -6.94423 -0.00148291 0 0 0 0 0 0
3 4.59929 -6.56994 1.21198 0 0 0 0 0 0
3 -5.15685 -6.13199 0.00786209 0 0 0 0 0 0
3 -5.68671 -5.65723 1.2183 0 0 0 0 0 0
3 -6.63455 -4.61748 1.22182 0 0 0 0 0 0
3 6.14207 -5.15439 -0.00135144 0 0 0 0 0 0
3 5.67118 -5.67054 1.21171 0 0 0 0 0 0
3 -7.57246 -2.74004 0.00975783 0 0 0 0 0 0
3 -7.94524 -2.10792 1.21337 0 0 0 0 0 0
3 -6.9562 -3.9996 0.0055488 0 0 0 0 0 0
2 -3.14869 -2.38059 0.869798 0 0 0 0 0 0
3 6.94325 -4.00702 -0.00163757 0 0 0 0 0 0
3 7.26765 -3.39021 1.21223 0 0 0 0 0 0
3 -8.25285 -0.719885 1.2099 0 0 0 0 0 0
3 -8.09155 -0.00234736 0.00636047 0 0 0 0 0 0
2 -4.87896 -0.616908 0.808879 0 0 0 0 0 0
2 -4.4658 -1.99433 1.12787 0 0 0 0 0 0
2 -2.252 -1.38309 0.332165 0 0 0 0 0 0
2 -2.66232 -0.0714158 0.0167342 0 0 0 0 0 0
2 -0.972539 -1.58076 0.961859 0 0 0 0 0 0
2 -0.151294 -0.485708 1.23805 0 0 0 0 0 0
3 7.8917 -1.39193 -0.000177325 0 0 0 0 0 0
3 7.74573 -2.07523 1.21229 0 0 0 0 0 0
3 -4.0177 -6.93404 2.42725 0 0 0 0 0 0
3 -3.39176 -7.25901 3.63734 0 0 0 0 0 0
3 -1.39371 -7.89513 2.4254 0 0 0 0 0 0
3 -2.07695 -7.74169 3.63734 0 0 0 0 0 0
3 0.000146039 -8.01835 2.42499 0 0 0 0 0 0
3 0.698104 -7.98822 3.63734 0 0 0 0 0 0
3 2.74212 -7.53607 2.42484 0 0 0 0 0 0
3 2.076 -7.7458 3.63737 0 0 0 0 0 0
3 4.01023 -6.94503 2.42474 0 0 0 0 0 0
3 4.59919 -6.56992 3.6374 0 0 0 0 0 0
3 -5.17567 -6.13843 2.4308 0 0 0 0 0 0
3 -5.74961 -5.69965 3.6373 0 0 0 0 0 0
3 -6.74756 -4.68672 3.63714 0 0 0 0 0 0
3 6.14295 -5.15603 2.42474 0 0 0 0 0 0
3 5.6711 -5.67079 3.63747 0 0 0 0 0 0
3 -7.86008 -2.84125 2.42138 0 0 0 0 0 0
3 -7.16568 -4.0948 2.4229 0 0 0 0 0 0
3 -8.18018 -2.16456 3.63667 0 0 0 0 0 0
2 -4.9109 -2.28325 2.46514 0 0 0 0 0 0
2 -4.30927 -3.08123 3.42467 0 0 0 0 0 0
2 -2.99315 -3.53171 3.13855 0 0 0 0 0 0
2 -1.08594 -2.6491 1.92112 0 0 0 0 0 0
2 -2.43883 -3.13849 1.90118 0 0 0 0 0 0
2 -0.382407 -2.59905 3.13171 0 0 0 0 0 0
3 6.94561 -4.01004 2.42487 0 0 0 0 0 0
3 7.26816 -3.3905 3.63747 0 0 0 0 0 0
3 -8.47109 -0.737695 3.63696 0 0 0 0 0 0
2 -5.54962 -1.14662 2.95085 0 0 0 0 0 0
2 -5.54944 -0.154467 1.97206 0 0 0 0 0 0
2 0.45785 -1.46457 3.40982 0 0 0 0 0 0
2 0.572676 -0.430459 2.47999 0 0 0 0 0 0
3 7.89807 -1.39345 2.42488 0 0 0 0 0 0
3 7.74682 -2.07573 3.63727 0 0 0 0 0 0
3 -4.01734 -6.93338 4.84738 0 0 0 0 0 0
3 -1.3937 -7.89511 4.84928 0 0 0 0 0 0
3 0.000172751 -8.01831 4.84971 0 0 0 0 0 0
3 2.74215 -7.536 4.84991 0 0 0 0 0 0
3 4.01033 -6.94487 4.85023 0 0 0 0 0 0
3 -5.17606 -6.13904 4.84376 0 0 0 0 0 0
3 6.14283 -5.15597 4.85032 0 0 0 0 0 0
3 -7.83758 -2.83055 4.84941 0 0 0 0 0 0
3 -7.13949 -4.07697 4.84954 0 0 0 0 0 0
2 -3.15318 -3.07214 5.45682 0 0 0 0 0 0
2 -4.4189 -2.83129 4.84835 0 0 0 0 0 0
2 -2.26824 -3.51568 4.39374 0 0 0 0 0 0
2 -0.968945 -3.01792 4.37945 0 0 0 0 0 0
2 -0.538512 -2.11327 5.41446 0 0 0 0 0 0
3 6.94532 -4.00973 4.85035 0 0 0 0 0 0
2 -5.12415 -1.72709 5.29842 0 0 0 0 0 0
2 -5.6048 -0.89827 4.28287 0 0 0 0 0 0
2 0.360781 -1.16443 4.81452 0 0 0 0 0 0
3 7.89718 -1.39351 4.84976 0 0 0 0 0 0
3 -3.39181 -7.2613 6.05852 0 0 0 0 0 0
3 -4.01128 -6.93917 7.27171 0 0 0 0 0 0
3 -2.07676 -7.74314 6.06115 0 0 0 0 0 0
3 -1.39379 -7.89645 7.27375 0 0 0 0 0 0
3 0.698258 -7.9885 6.06219 0 0 0 0 0 0
3 0.00039077 -8.01894 7.27465 0 0 0 0 0 0
3 2.07631 -7.74574 6.06267 0 0 0 0 0 0
3 2.74285 -7.5353 7.27543 0 0 0 0 0 0
3 4.59941 -6.56937 6.06318 0 0 0 0 0 0
3 4.01112 -6.9429 7.27712 0 0 0 0 0 0
3 -5.68854 -5.66007 6.05691 0 0 0 0 0 0
3 -6.63034 -4.61453 6.05285 0 0 0 0 0 0
3 -5.15763 -6.13336 7.26724 0 0 0 0 0 0
3 5.67114 -5.66927 6.06415 0 0 0 0 0 0
3 6.14101 -5.15073 7.2775 0 0 0 0 0 0
3 -7.57874 -2.74259 7.26561 0 0 0 0 0 0
3 -7.94815 -2.10791 6.06165 0 0 0 0 0 0
3 -6.95569 -3.99891 7.26895 0 0 0 0 0 0
2 -2.75205 -2.17447 6.47472 0 0 0 0 0 0
3 6.94163 -4.00234 7.27925 0 0 0 0 0 0
3 7.26559 -3.38894 6.06329 0 0 0 0 0 0
3 -8.214 -0.714357 6.06041 0 0 0 0 0 0
3 -8.07669 -0.00279606 7.26825 0 0 0 0 0 0
2 -4.83524 -0.88605 6.4398 0 0 0 0 0 0
2 -3.57247 -1.08681 7.00395 0 0 0 0 0 0
2 -1.38696 -0.31907 6.87625 0 0 0 0 0 0
2 -1.39806 -1.68951 6.43439 0 0 0 0 0 0
3 7.74286 -2.07381 6.06309 0 0 0 0 0 0
3 7.88955 -1.39035 7.27587 0 0 0 0 0 0
3 -3.39085 -7.26594 8.48471 0 0 0 0 0 0
3 -4.00963 -6.94484 9.69841 0 0 0 0 0 0
3 -2.07572 -7.74559 8.4864 0 0 0 0 0 0
3 -1.39327 -7.89714 9.69909 0 0 0 0 0 0
3 0.698794 -7.98838 8.48726 0 0 0 0 0 0
3 0.000777155 -8.01881 9.69965 0 0 0 0 0 0
3 2.07707 -7.74467 8.48843 0 0 0 0 0 0
3 2.74435 -7.53179 9.70113 0 0 0 0 0 0
3 4.60029 -6.56322 8.49029 0 0 0 0 0 0
3 4.01242 -6.93652 9.70465 0 0 0 0 0 0
3 -5.66915 -5.66477 8.48345 0 0 0 0 0 0
3 -6.56711 -4.59022 8.48056 0 0 0 0 0 0
3 -5.15572 -6.14124 9.69686 0 0 0 0 0 0
3 5.67196 -5.66102 8.49404 0 0 0 0 0 0
3 6.15926 -5.14449 9.70471 0 0 0 0 0 0
3 -7.53193 -2.73957 9.69732 0 0 0 0 0 0
3 -6.94198 -4.00817 9.69744 0 0 0 0 0 0
1 2.21939 -2.34537 9.83443 0 0 0 0 0 0
3 6.99647 -4.01571 9.70888 0 0 0 0 0 0
3 7.27045 -3.37899 8.49141 0 0 0 0 0 0
3 -7.74141 -2.07176 8.48454 0 0 0 0 0 0
3 -7.98441 -0.695358 8.48374 0 0 0 0 0 0
3 -8.01322 -0.000748979 9.6984 0 0 0 0 0 0
1 0.502245 -0.595347 9.83967 0 0 0 0 0 0
1 2.73437 -0.0815006 8.93842 0 0 0 0 0 0
1 3.13194 -1.40989 9.21296 0 0 0 0 0 0
1 4.43655 -1.63925 9.77724 0 0 0 0 0 0
1 5.18073 -0.485036 10.064 0 0 0 0 0 0
3 7.76911 -2.07029 8.4941 0 0 0 0 0 0
3 8.05417 -1.40603 9.70141 0 0 0 0 0 0
3 -3.38988 -7.26776 10.9113 0 0 0 0 0 0
3 -4.00912 -6.94563 12.1242 0 0 0 0 0 0
3 -2.07496 -7.74616 10.9118 0 0 0 0 0 0
3 -1.39294 -7.89702 12.1243 0 0 0 0 0 0
3 0.699069 -7.98737 10.9121 0 0 0 0 0 0
3 0.00088176 -8.01826 12.1244 0 0 0 0 0 0
3 2.0771 -7.74266 10.9131 0 0 0 0 0 0
3 2.7454 -7.52894 12.1248 0 0 0 0 0 0
3 4.60885 -6.55518 10.9156 0 0 0 0 0 0
3 4.0143 -6.93362 12.126 0 0 0 0 0 0
3 -5.67018 -5.67146 10.911 0 0 0 0 0 0
3 -6.5694 -4.59933 10.9106 0 0 0 0 0 0
3 -5.15533 -6.14332 12.124 0 0 0 0 0 0
3 5.70284 -5.67272 10.9199 0 0 0 0 0 0
3 6.26106 -5.20444 12.125 0 0 0 0 0 0
3 -7.53632 -2.74295 12.1239 0 0 0 0 0 0
3 -6.94493 -4.01106 12.1239 0 0 0 0 0 0
1 0.321282 -2.32366 11.3925 0 0 0 0 0 0
1 2.35773 -3.52644 12.0427 0 0 0 0 0 0
1 2.93112 -3.15402 10.7943 0 0 0 0 0 0
1 4.29092 -2.69298 10.7952 0 0 0 0 0 0
1 4.8202 -2.54767 12.0706 0 0 0 0 0 0
3 7.18451 -4.11538 12.1254 0 0 0 0 0 0
3 7.4634 -3.44294 10.911 0 0 0 0 0 0
3 8.03211 -2.136 10.9106 0 0 0 0 0 0
3 -7.74507 -2.07629 10.9112 0 0 0 0 0 0
3 -7.98771 -0.698319 10.9113 0 0 0 0 0 0
3 -8.01988 -0.000417397 12.1238 0 0 0 0 0 0
1 -0.50041 -1.23148 11.8451 0 0 0 0 0 0
1 -0.388562 -0.162755 10.8847 0 0 0 0 0 0
1 0.926721 -1.93355 10.1466 0 0 0 0 0 0
1 5.6379 -0.415632 11.4119 0 0 0 0 0 0
3 8.35581 -1.45216 12.1216 0 0 0 0 0 0
3 8.48937 -0.0065723 12.1227 0 0 0 0 0 0
3 -3.38962 -7.26798 13.3368 0 0 0 0 0 0
3 -2.07482 -7.74618 13.3368 0 0 0 0 0 0
3 0.699067 -7.98708 13.3366 0 0 0 0 0 0
3 2.07692 -7.74205 13.3362 0 0 0 0 0 0
3 4.61901 -6.56314 13.3351 0 0 0 0 0 0
3 -5.67016 -5.67175 13.3368 0 0 0 0 0 0
3 -6.56969 -4.6001 13.3367 0 0 0 0 0 0
3 5.73227 -5.69985 13.3333 0 0 0 0 0 0
1 0.914326 -2.79203 13.7369 0 0 0 0 0 0
1 2.18824 -3.02896 14.3592 0 0 0 0 0 0
1 1.01535 -3.09242 12.3297 0 0 0 0 0 0
1 4.35139 -3.04936 13.3216 0 0 0 0 0 0
1 3.0588 -3.5301 13.322 0 0 0 0 0 0
1 4.7847 -2.14774 14.3766 0 0 0 0 0 0
3 7.55135 -3.47867 13.3409 0 0 0 0 0 0
3 8.16255 -2.1716 13.3436 0 0 0 0 0 0
3 -7.74651 -2.07674 13.3365 0 0 0 0 0 0
3 -7.98948 -0.698658 13.3362 0 0 0 0 0 0
1 0.122135 -1.73086 14.1745 0 0 0 0 0 0
1 -0.59487 -0.939913 13.2093 0 0 0 0 0 0
1 5.49175 -1.12595 13.7262 0 0 0 0 0 0
1 5.50695 -1.36207 12.3379 0 0 0 0 0 0
3 -4.00915 -6.94569 14.5495 0 0 0 0 0 0
3 -3.39012 -7.26759 15.7626 0 0 0 0 0 0
3 -1.393 -7.89722 14.5493 0 0 0 0 0 0
3 -2.07511 -7.74628 15.7619 0 0 0 0 0 0
3 0.000896515 -8.01863 14.549 0 0 0 0 0 0
3 0.698999 -7.98816 15.7613 0 0 0 0 0 0
3 2.74499 -7.53044 14.5477 0 0 0 0 0 0
3 2.07723 -7.74401 15.7601 0 0 0 0 0 0
3 4.01403 -6.93614 14.5445 0 0 0 0 0 0
3 4.60191 -6.55919 15.7578 0 0 0 0 0 0
3 -5.1554 -6.1432 14.5499 0 0 0 0 0 0
3 -5.66987 -5.67064 15.7631 0 0 0 0 0 0
3 -6.5684 -4.59756 15.7637 0 0 0 0 0 0
3 6.20283 -5.16896 14.5461 0 0 0 0 0 0
3 5.6792 -5.66181 15.7535 0 0 0 0 0 0
3 -7.53558 -2.74277 14.5493 0 0 0 0 0 0
3 -6.94461 -4.01108 14.5496 0 0 0 0 0 0
1 2.62959 -2.17024 15.3995 0 0 0 0 0 0
3 7.07742 -4.0579 14.5443 0 0 0 0 0 0
3 7.31741 -3.39109 15.7572 0 0 0 0 0 0
3 7.83664 -2.08439 15.7552 0 0 0 0 0 0
3 -7.74114 -2.07511 15.762 0 0 0 0 0 0
3 -7.98346 -0.697719 15.7612 0 0 0 0 0 0
3 -8.0186 -0.000396105 14.5485 0 0 0 0 0 0
1 0.581317 -0.851044 15.2168 0 0 0 0 0 0
1 1.82065 -1.05573 15.8168 0 0 0 0 0 0
1 4.03465 -0.336581 15.9223 0 0 0 0 0 0
1 4.00644 -1.74413 15.462 0 0 0 0 0 0
3 8.22153 -1.43246 14.56 0 0 0 0 0 0
3 8.36315 -0.00780149 14.5591 0 0 0 0 0 0
3 -4.0099 -6.94369 16.9757 0 0 0 0 0 0
3 -3.39107 -7.26449 18.1895 0 0 0 0 0 0
3 -1.39345 -7.89719 16.9746 0 0 0 0 0 0
3 -2.07601 -7.74497 18.1874 0 0 0 0 0 0
3 0.000670139 -8.01921 16.9739 0 0 0 0 0 0
3 0.698412 -7.98878 18.1865 0 0 0 0 0 0
3 2.7433 -7.53451 16.9729 0 0 0 0 0 0
3 2.07657 -7.74571 18.1858 0 0 0 0 0 0
3 4.01146 -6.94101 16.9705 0 0 0 0 0 0
3 4.59954 -6.56831 18.1849 0 0 0 0 0 0
3 -5.15553 -6.1387 16.9782 0 0 0 0 0 0
3 -5.66984 -5.65945 18.1912 0 0 0 0 0 0
3 -6.5766 -4.59092 18.1949 0 0 0 0 0 0
3 6.14041 -5.1453 16.9703 0 0 0 0 0 0
3 5.67067 -5.66698 18.1833 0 0 0 0 0 0
3 -7.5293 -2.73457 16.9783 0 0 0 0 0 0
3 -6.93943 -4.00353 16.9768 0 0 0 0 0 0
3 6.94585 -3.99962 16.9674 0 0 0 0 0 0
3 7.26222 -3.38635 18.1854 0 0 0 0 0 0
3 -7.76837 -2.07159 18.1911 0 0 0 0 0 0
3 -8.03767 -0.696594 18.1915 0 0 0 0 0 0
3 -8.01295 -0.0016586 16.9748 0 0 0 0 0 0
2 -2.6623 -0.0725967 18.5013 0 0 0 0 0 0
3 7.89616 -1.38991 16.9719 0 0 0 0 0 0
3 7.73778 -2.07113 18.1853 0 0 0 0 0 0
3 -4.01237 -6.93614 19.4021 0 0 0 0 0 0
3 -3.39188 -7.26069 20.6142 0 0 0 0 0 0
3 -1.3938 -7.89599 19.3998 0 0 0 0 0 0
3 -2.0768 -7.74242 20.6122 0 0 0 0 0 0
3 0.00023615 -8.01881 19.3991 0 0 0 0 0 0
3 0.698131 -7.9884 20.6115 0 0 0 0 0 0
3 2.74229 -7.53607 19.3987 0 0 0 0 0 0
3 2.07605 -7.74589 20.6113 0 0 0 0 0 0
3 4.01052 -6.9447 19.3981 0 0 0 0 0 0
3 4.59913 -6.57003 20.6112 0 0 0 0 0 0
3 -5.16123 -6.13228 19.4069 0 0 0 0 0 0
3 -5.71185 -5.67327 20.6149 0 0 0 0 0 0
3 -6.6876 -4.65089 20.6167 0 0 0 0 0 0
3 6.14247 -5.15576 19.3981 0 0 0 0 0 0
3 5.67104 -5.67089 20.6111 0 0 0 0 0 0
3 -7.6608 -2.76767 19.4052 0 0 0 0 0 0
3 -7.01432 -4.0215 19.4031 0 0 0 0 0 0
3 -8.0879 -2.14176 20.6031 0 0 0 0 0 0
2 -3.14946 -2.38123 19.3553 0 0 0 0 0 0
2 -1.08743 -2.6496 20.407 0 0 0 0 0 0
2 -2.44093 -3.13752 20.3871 0 0 0 0 0 0
3 6.94444 -4.00915 19.3982 0 0 0 0 0 0
3 7.26798 -3.39068 20.6113 0 0 0 0 0 0
3 -8.38231 -0.73225 20.6042 0 0 0 0 0 0
2 -5.5454 -0.157783 20.4559 0 0 0 0 0 0
2 -4.87896 -0.620268 19.2915 0 0 0 0 0 0
2 -4.46856 -1.9992 19.6093 0 0 0 0 0 0
2 -2.25265 -1.3839 18.8176 0 0 0 0 0 0
2 -0.972763 -1.58182 19.4469 0 0 0 0 0 0
2 -0.151332 -0.486517 19.7227 0 0 0 0 0 0
3 7.89467 -1.39308 19.3993 0 0 0 0 0 0
3 7.74643 -2.07585 20.6116 0 0 0 0 0 0
3 -4.0194 -6.9356 21.8247 0 0 0 0 0 0
3 -1.39357 -7.89484 21.824 0 0 0 0 0 0
3 0.000187739 -8.01818 21.8239 0 0 0 0 0 0
3 2.74205 -7.53604 21.8239 0 0 0 0 0 0
3 4.01013 -6.94505 21.8239 0 0 0 0 0 0
3 -5.1823 -6.14591 21.8259 0 0 0 0 0 0
3 6.14282 -5.15616 21.8239 0 0 0 0 0 0
3 -7.89091 -2.8493 21.8244 0 0 0 0 0 0
3 -7.17511 -4.09423 21.8244 0 0 0 0 0 0
2 -4.9165 -2.28978 20.9473 0 0 0 0 0 0
2 -4.3168 -3.09146 21.9076 0 0 0 0 0 0
2 -2.99674 -3.53457 21.6227 0 0 0 0 0 0
2 -2.27208 -3.51241 22.8776 0 0 0 0 0 0
2 -0.972031 -3.01704 22.8641 0 0 0 0 0 0
2 -0.383572 -2.59925 21.6171 0 0 0 0 0 0
3 6.94554 -4.01029 21.8239 0 0 0 0 0 0
2 -5.54006 -1.1474 21.4332 0 0 0 0 0 0
2 -5.58985 -0.891612 22.7625 0 0 0 0 0 0
2 0.572293 -0.431142 20.965 0 0 0 0 0 0
2 0.457042 -1.46507 21.8952 0 0 0 0 0 0
3 7.8981 -1.39346 21.8238 0 0 0 0 0 0
3 -3.3917 -7.25995 23.0347 0 0 0 0 0 0
3 -4.01413 -6.93486 24.2458 0 0 0 0 0 0
3 -2.07675 -7.74202 23.0358 0 0 0 0 0 0
3 -1.39366 -7.89562 24.248 0 0 0 0 0 0
3 0.698136 -7.98828 23.0363 0 0 0 0 0 0
3 0.000310873 -8.01857 24.2487 0 0 0 0 0 0
3 2.07605 -7.7458 23.0364 0 0 0 0 0 0
3 2.74228 -7.53595 24.2491 0 0 0 0 0 0
3 4.5991 -6.56999 23.0366 0 0 0 0 0 0
3 4.01053 -6.94458 24.2498 0 0 0 0 0 0
3 -5.73175 -5.68681 23.0351 0 0 0 0 0 0
3 -6.7207 -4.67011 23.0344 0 0 0 0 0 0
3 -5.16683 -6.13474 24.2416 0 0 0 0 0 0
3 5.67104 -5.67083 23.0367 0 0 0 0 0 0
3 6.14248 -5.15564 24.2498 0 0 0 0 0 0
3 -7.75883 -2.80679 24.2509 0 0 0 0 0 0
3 -7.07761 -4.05161 24.2488 0 0 0 0 0 0
3 -8.1404 -2.15669 23.0451 0 0 0 0 0 0
2 -3.15654 -3.06752 23.9386 0 0 0 0 0 0
2 -4.42226 -2.82833 23.3315 0 0 0 0 0 0
2 -2.75617 -2.17161 24.9579 0 0 0 0 0 0
2 -0.540947 -2.11315 23.8996 0 0 0 0 0 0
3 6.94434 -4.00884 24.2498 0 0 0 0 0 0
3 7.26793 -3.39061 23.0364 0 0 0 0 0 0
3 -8.4318 -0.738051 23.045 0 0 0 0 0 0
2 -5.12224 -1.71925 23.7768 0 0 0 0 0 0
2 -4.83787 -0.881688 24.9208 0 0 0 0 0 0
2 -1.40121 -1.68897 24.9192 0 0 0 0 0 0
2 0.359587 -1.1649 23.3 0 0 0 0 0 0
3 7.74636 -2.07574 23.036 0 0 0 0 0 0
3 7.89466 -1.39274 24.2482 0 0 0 0 0 0
3 -3.39125 -7.2634 25.4579 0 0 0 0 0 0
3 -4.01009 -6.94234 26.6716 0 0 0 0 0 0
3 -2.07619 -7.74434 25.4602 0 0 0 0 0 0
3 -1.39349 -7.89692 26.6729 0 0 0 0 0 0
3 0.698501 -7.98857 25.4612 0 0 0 0 0 0
3 0.000659638 -8.01903 26.6737 0 0 0 0 0 0
3 2.07667 -7.74549 25.4621 0 0 0 0 0 0
3 2.74352 -7.53424 26.6749 0 0 0 0 0 0
3 4.59962 -6.56816 25.463 0 0 0 0 0 0
3 4.01176 -6.94074 26.6775 0 0 0 0 0 0
3 -5.67344 -5.65709 25.4564 0 0 0 0 0 0
3 -6.59139 -4.59626 25.4527 0 0 0 0 0 0
3 -5.15549 -6.1365 26.6686 0 0 0 0 0 0
3 5.6708 -5.66684 25.4647 0 0 0 0 0 0
3 6.14056 -5.14477 26.6776 0 0 0 0 0 0
3 -7.53784 -2.73561 26.6695 0 0 0 0 0 0
3 -7.82612 -2.08576 25.4583 0 0 0 0 0 0
3 -6.93917 -4.00042 26.6712 0 0 0 0 0 0
3 6.94438 -3.99785 26.6805 0 0 0 0 0 0
3 7.26181 -3.38534 25.4624 0 0 0 0 0 0
3 -8.08478 -0.704162 25.4569 0 0 0 0 0 0
3 -8.02052 -0.00380544 26.6714 0 0 0 0 0 0
2 -3.57584 -1.08295 25.486 0 0 0 0 0 0
2 -1.38881 -0.318439 25.361 0 0 0 0 0 0
3 7.739 -2.0705 25.4625 0 0 0 0 0 0
3 7.90224 -1.38871 26.6753 0 0 0 0 0 0
3 -3.39024 -7.26716 27.8847 0 0 0 0 0 0
3 -4.0091 -6.94563 29.098 0 0 0 0 0 0
3 -2.0752 -7.74607 27.8857 0 0 0 0 0 0
3 -1.39301 -7.89714 29.0983 0 0 0 0 0 0
3 0.699056 -7.98804 27.8863 0 0 0 0 0 0
3 0.000931738 -8.01856 29.0987 0 0 0 0 0 0
3 2.07731 -7.74389 27.8876 0 0 0 0 0 0
3 2.7451 -7.53019 29.1 0 0 0 0 0 0
3 4.60266 -6.55895 27.8902 0 0 0 0 0 0
3 4.01319 -6.93387 29.1033 0 0 0 0 0 0
3 -5.66928 -5.66951 27.8843 0 0 0 0 0 0
3 -6.56686 -4.5956 27.8836 0 0 0 0 0 0
3 -5.15532 -6.14303 29.0976 0 0 0 0 0 0
3 5.67943 -5.66065 27.8948 0 0 0 0 0 0
3 6.19799 -5.16086 29.1019 0 0 0 0 0 0
3 -7.53436 -2.7425 29.0988 0 0 0 0 0 0
3 -6.9438 -4.01079 29.0982 0 0 0 0 0 0
1 2.21995 -2.34461 28.321 0 0 0 0 0 0
1 2.92984 -3.1522 29.2833 0 0 0 0 0 0
1 4.28907 -2.69374 29.2847 0 0 0 0 0 0
3 7.0749 -4.05204 29.1022 0 0 0 0 0 0
3 7.3126 -3.3862 27.89 0 0 0 0 0 0
3 7.84224 -2.08461 27.8915 0 0 0 0 0 0
3 -7.7388 -2.07433 27.8865 0 0 0 0 0 0
3 -7.98064 -0.697544 27.8865 0 0 0 0 0 0
3 -8.0171 -0.000638119 29.0992 0 0 0 0 0 0
1 0.502688 -0.594555 28.324 0 0 0 0 0 0
1 -0.388195 -0.161674 29.3689 0 0 0 0 0 0
1 0.926791 -1.9328 28.6311 0 0 0 0 0 0
1 2.73567 -0.0824473 27.4235 0 0 0 0 0 0
1 3.13387 -1.4105 27.6997 0 0 0 0 0 0
1 4.43765 -1.64328 28.2629 0 0 0 0 0 0
1 5.19005 -0.492772 28.5585 0 0 0 0 0 0
3 8.21459 -1.42969 29.0884 0 0 0 0 0 0
3 8.35748 -0.0031817 29.0888 0 0 0 0 0 0
3 -3.38959 -7.26798 30.3108 0 0 0 0 0 0
3 -4.00906 -6.94569 31.5234 0 0 0 0 0 0
3 -2.07478 -7.74617 30.3109 0 0 0 0 0 0
3 -1.39287 -7.89704 31.5233 0 0 0 0 0 0
3 0.699198 -7.98706 30.311 0 0 0 0 0 0
3 0.000956532 -8.01827 31.5233 0 0 0 0 0 0
3 2.07715 -7.74217 30.3115 0 0 0 0 0 0
3 2.74588 -7.52886 31.5229 0 0 0 0 0 0
3 4.61408 -6.55389 30.3126 0 0 0 0 0 0
3 4.01468 -6.93288 31.5217 0 0 0 0 0 0
3 -5.67006 -5.67188 30.3108 0 0 0 0 0 0
3 -6.56951 -4.60026 30.311 0 0 0 0 0 0
3 -5.15524 -6.14345 31.5235 0 0 0 0 0 0
3 5.71643 -5.6781 30.3144 0 0 0 0 0 0
3 6.27377 -5.21207 31.5214 0 0 0 0 0 0
3 -7.53645 -2.74326 31.5238 0 0 0 0 0 0
3 -6.94495 -4.01119 31.5236 0 0 0 0 0 0
1 0.320078 -2.32304 29.8764 0 0 0 0 0 0
1 1.01196 -3.09228 30.8149 0 0 0 0 0 0
1 2.35421 -3.52708 30.5296 0 0 0 0 0 0
1 4.82683 -2.55515 30.5579 0 0 0 0 0 0
3 7.18371 -4.11074 31.5204 0 0 0 0 0 0
3 7.57208 -3.48745 30.3038 0 0 0 0 0 0
3 8.16126 -2.17053 30.3024 0 0 0 0 0 0
3 -7.74629 -2.07683 30.3114 0 0 0 0 0 0
3 -7.98925 -0.698882 30.3115 0 0 0 0 0 0
3 -8.02008 -0.000482981 31.5235 0 0 0 0 0 0
1 -0.500908 -1.23041 30.3292 0 0 0 0 0 0
1 5.49362 -1.37345 30.8386 0 0 0 0 0 0
1 5.6209 -0.413213 29.8989 0 0 0 0 0 0
3 8.3444 -1.44996 31.5251 0 0 0 0 0 0
3 8.45767 -0.00516747 31.524 0 0 0 0 0 0
3 -3.38974 -7.26795 32.7361 0 0 0 0 0 0
3 -2.07488 -7.74625 32.7358 0 0 0 0 0 0
3 0.699247 -7.98737 32.7355 0 0 0 0 0 0
3 2.07731 -7.74257 32.7345 0 0 0 0 0 0
3 4.61335 -6.5587 32.7318 0 0 0 0 0 0
3 -5.67018 -5.67172 32.7362 0 0 0 0 0 0
3 -6.56958 -4.59993 32.7364 0 0 0 0 0 0
3 5.71304 -5.68134 32.7274 0 0 0 0 0 0
1 0.909201 -2.79191 32.2219 0 0 0 0 0 0
1 2.18171 -3.0306 32.8466 0 0 0 0 0 0
1 4.34752 -3.05276 31.8121 0 0 0 0 0 0
1 3.05315 -3.53237 31.8097 0 0 0 0 0 0
1 4.77772 -2.15293 32.8656 0 0 0 0 0 0
3 7.48787 -3.45438 32.7358 0 0 0 0 0 0
3 8.06249 -2.14623 32.7398 0 0 0 0 0 0
3 -7.74607 -2.07677 32.7362 0 0 0 0 0 0
3 -7.98886 -0.698827 32.7356 0 0 0 0 0 0
1 0.118971 -1.72947 32.6593 0 0 0 0 0 0
1 -0.596157 -0.938367 31.6933 0 0 0 0 0 0
1 0.577989 -0.849853 33.7018 0 0 0 0 0 0
1 5.48028 -1.12647 32.2101 0 0 0 0 0 0
3 -4.00941 -6.94538 33.9489 0 0 0 0 0 0
3 -3.39056 -7.26677 35.1624 0 0 0 0 0 0
3 -1.39312 -7.8973 33.9484 0 0 0 0 0 0
3 -2.07546 -7.74601 35.1611 0 0 0 0 0 0
3 0.000908895 -8.0189 33.9479 0 0 0 0 0 0
3 0.698993 -7.98847 35.1603 0 0 0 0 0 0
3 2.7449 -7.53159 33.9463 0 0 0 0 0 0
3 2.07734 -7.74465 35.159 0 0 0 0 0 0
3 4.01348 -6.93684 33.9425 0 0 0 0 0 0
3 4.60059 -6.56258 35.157 0 0 0 0 0 0
3 -5.15559 -6.14234 33.9498 0 0 0 0 0 0
3 -5.66927 -5.66742 35.1631 0 0 0 0 0 0
3 -6.56681 -4.59307 35.1647 0 0 0 0 0 0
3 6.1618 -5.14464 33.9418 0 0 0 0 0 0
3 5.67218 -5.65999 35.1526 0 0 0 0 0 0
3 -7.53353 -2.74121 33.9495 0 0 0 0 0 0
3 -6.9435 -4.00982 33.9492 0 0 0 0 0 0
1 2.62274 -2.17274 33.8887 0 0 0 0 0 0
3 7.00815 -4.02212 33.9377 0 0 0 0 0 0
3 7.26921 -3.37914 35.1553 0 0 0 0 0 0
3 -7.73668 -2.07192 35.162 0 0 0 0 0 0
3 -7.98068 -0.695755 35.1615 0 0 0 0 0 0
3 -8.0155 -0.000584076 33.9478 0 0 0 0 0 0
1 1.81613 -1.05555 34.3035 0 0 0 0 0 0
1 4.03141 -0.340146 34.4104 0 0 0 0 0 0
1 4.00061 -1.74947 33.9537 0 0 0 0 0 0
3 8.04246 -1.40513 33.9443 0 0 0 0 0 0
3 7.75942 -2.06779 35.1525 0 0 0 0 0 0
3 8.19403 -0.000325336 33.9467 0 0 0 0 0 0
3 -4.01058 -6.94096 36.3754 0 0 0 0 0 0
3 -3.39155 -7.26256 37.589 0 0 0 0 0 0
3 -1.39364 -7.89686 36.3738 0 0 0 0 0 0
3 -2.07648 -7.74393 37.5865 0 0 0 0 0 0
3 0.000554524 -8.01916 36.373 0 0 0 0 0 0
3 0.698325 -7.98868 37.5855 0 0 0 0 0 0
3 2.74307 -7.53532 36.3721 0 0 0 0 0 0
3 2.07644 -7.74584 37.585 0 0 0 0 0 0
3 4.01138 -6.94275 36.3702 0 0 0 0 0 0
3 4.59952 -6.56942 37.5844 0 0 0 0 0 0
3 -5.15579 -6.13434 36.379 0 0 0 0 0 0
3 -5.67766 -5.65573 37.5903 0 0 0 0 0 0
3 -6.60722 -4.60342 37.5941 0 0 0 0 0 0
3 6.14078 -5.15052 36.3698 0 0 0 0 0 0
3 5.67125 -5.66925 37.5833 0 0 0 0 0 0
3 -7.54287 -2.73241 36.3809 0 0 0 0 0 0
3 -7.85442 -2.08521 37.5902 0 0 0 0 0 0
3 -6.94344 -3.99797 36.3767 0 0 0 0 0 0
2 -3.14827 -2.38364 37.8392 0 0 0 0 0 0
3 6.94138 -4.00222 36.3681 0 0 0 0 0 0
3 7.26574 -3.38912 37.5842 0 0 0 0 0 0
3 -8.15138 -0.705657 37.5877 0 0 0 0 0 0
3 -8.03942 -0.00172339 36.3767 0 0 0 0 0 0
2 -4.87999 -0.620937 37.7798 0 0 0 0 0 0
2 -2.25292 -1.38424 37.3024 0 0 0 0 0 0
2 -2.66437 -0.0728635 36.9872 0 0 0 0 0 0
2 -0.973148 -1.58079 37.9317 0 0 0 0 0 0
3 7.88693 -1.39024 36.3713 0 0 0 0 0 0
3 7.74274 -2.07385 37.5843 0 0 0 0 0 0
3 -4.01564 -6.93391 38.8006 0 0 0 0 0 0
3 -3.39187 -7.25909 40.0113 0 0 0 0 0 0
3 -1.39375 -7.89544 38.7986 0 0 0 0 0 0
3 -2.077 -7.74173 40.0107 0 0 0 0 0 0
3 0.000196995 -8.01851 38.798 0 0 0 0 0 0
3 0.698118 -7.98825 40.0104 0 0 0 0 0 0
3 2.74221 -7.53606 38.7978 0 0 0 0 0 0
3 2.07603 -7.7458 40.0104 0 0 0 0 0 0
3 4.01041 -6.94488 38.7974 0 0 0 0 0 0
3 4.59923 -6.56988 40.0103 0 0 0 0 0 0
3 -5.17027 -6.1353 38.8042 0 0 0 0 0 0
3 -5.74435 -5.6967 40.01 0 0 0 0 0 0
3 -6.73652 -4.68032 40.0105 0 0 0 0 0 0
3 6.1429 -5.15599 38.7973 0 0 0 0 0 0
3 5.67118 -5.67069 40.0103 0 0 0 0 0 0
3 -7.78306 -2.8108 38.7959 0 0 0 0 0 0
3 -7.11445 -4.06888 38.7958 0 0 0 0 0 0
3 -8.16234 -2.15691 40.0037 0 0 0 0 0 0
2 -4.90446 -2.28462 39.439 0 0 0 0 0 0
2 -2.99112 -3.5371 40.1095 0 0 0 0 0 0
2 -1.08567 -2.64889 38.8914 0 0 0 0 0 0
2 -2.43795 -3.14002 38.872 0 0 0 0 0 0
2 -0.382246 -2.59856 40.1019 0 0 0 0 0 0
3 6.94545 -4.00972 38.7973 0 0 0 0 0 0
3 7.26815 -3.39055 40.0105 0 0 0 0 0 0
3 -8.45488 -0.733904 40.0045 0 0 0 0 0 0
2 -5.5325 -1.14594 39.9245 0 0 0 0 0 0
2 -5.54761 -0.15872 38.9451 0 0 0 0 0 0
2 -4.46612 -1.99932 38.0982 0 0 0 0 0 0
2 0.572003 -0.42984 39.449 0 0 0 0 0 0
2 -0.152197 -0.485161 38.2069 0 0 0 0 0 0
3 7.89729 -1.39357 38.7978 0 0 0 0 0 0
3 7.74685 -2.07569 40.0106 0 0 0 0 0 0
3 -4.01904 -6.93384 41.2212 0 0 0 0 0 0
3 -1.39369 -7.89488 41.2225 0 0 0 0 0 0
3 0.000144313 -8.01819 41.2228 0 0 0 0 0 0
3 2.74215 -7.53598 41.2229 0 0 0 0 0 0
3 4.0103 -6.94488 41.2231 0 0 0 0 0 0
3 -5.18158 -6.14371 41.2187 0 0 0 0 0 0
3 6.14293 -5.15592 41.2233 0 0 0 0 0 0
3 -7.86192 -2.83528 41.2219 0 0 0 0 0 0
3 -7.1511 -4.07881 41.2221 0 0 0 0 0 0
2 -4.41586 -2.82745 41.8172 0 0 0 0 0 0
2 -4.30696 -3.08646 40.3965 0 0 0 0 0 0
2 -2.2668 -3.5164 41.3653 0 0 0 0 0 0
2 -0.968143 -3.01766 41.3498 0 0 0 0 0 0
3 6.94559 -4.00981 41.2235 0 0 0 0 0 0
2 -5.12912 -1.72853 42.2687 0 0 0 0 0 0
2 -5.61013 -0.899198 41.256 0 0 0 0 0 0
2 0.361015 -1.16389 41.7843 0 0 0 0 0 0
2 0.457716 -1.46381 40.3794 0 0 0 0 0 0
3 7.89779 -1.39366 41.2233 0 0 0 0 0 0
3 -3.39197 -7.26031 42.4318 0 0 0 0 0 0
3 -4.01217 -6.9373 43.6445 0 0 0 0 0 0
3 -2.07694 -7.74246 42.4343 0 0 0 0 0 0
3 -1.39383 -7.89609 43.6468 0 0 0 0 0 0
3 0.698204 -7.9884 42.4352 0 0 0 0 0 0
3 0.000316771 -8.0188 43.6477 0 0 0 0 0 0
3 2.07622 -7.74577 42.4356 0 0 0 0 0 0
3 2.74268 -7.53561 43.6483 0 0 0 0 0 0
3 4.59938 -6.56962 42.436 0 0 0 0 0 0
3 4.01099 -6.94365 43.6497 0 0 0 0 0 0
3 -5.70531 -5.66994 42.4308 0 0 0 0 0 0
3 -6.66668 -4.63651 42.4284 0 0 0 0 0 0
3 -5.16071 -6.1335 43.6397 0 0 0 0 0 0
3 5.67129 -5.66995 42.4368 0 0 0 0 0 0
3 6.14189 -5.15325 43.6502 0 0 0 0 0 0
3 -7.64018 -2.76221 43.6419 0 0 0 0 0 0
3 -8.04258 -2.12919 42.4412 0 0 0 0 0 0
3 -6.98955 -4.01041 43.6427 0 0 0 0 0 0
2 -3.15205 -3.06921 42.4262 0 0 0 0 0 0
2 -2.75165 -2.1738 43.4448 0 0 0 0 0 0
2 -0.537985 -2.11293 42.3847 0 0 0 0 0 0
3 6.94285 -4.00539 43.6516 0 0 0 0 0 0
3 7.26706 -3.39002 42.4366 0 0 0 0 0 0
3 -8.32501 -0.725956 42.4412 0 0 0 0 0 0
3 -8.1592 -0.00132214 43.6442 0 0 0 0 0 0
2 -4.83555 -0.887139 43.4098 0 0 0 0 0 0
2 -3.5724 -1.08715 43.9727 0 0 0 0 0 0
2 -1.38716 -0.318778 43.8458 0 0 0 0 0 0
2 -1.3979 -1.68932 43.4046 0 0 0 0 0 0
3 7.74496 -2.07495 42.4364 0 0 0 0 0 0
3 7.891 -1.39208 43.6494 0 0 0 0 0 0
3 -3.39106 -7.26503 44.8573 0 0 0 0 0 0
3 -4.0098 -6.94413 46.0711 0 0 0 0 0 0
3 -2.07593 -7.74519 44.8593 0 0 0 0 0 0
3 -1.39335 -7.89711 46.072 0 0 0 0 0 0
3 0.698723 -7.98849 44.8603 0 0 0 0 0 0
3 0.000770501 -8.01894 46.0727 0 0 0 0 0 0
3 2.07701 -7.74502 44.8614 0 0 0 0 0 0
3 2.74418 -7.53271 46.0742 0 0 0 0 0 0
3 4.59999 -6.56536 44.8629 0 0 0 0 0 0
3 4.01233 -6.93808 46.0776 0 0 0 0 0 0
3 -5.66938 -5.66125 44.8557 0 0 0 0 0 0
3 -6.57137 -4.58923 44.8522 0 0 0 0 0 0
3 -5.15565 -6.13969 46.069 0 0 0 0 0 0
3 5.67077 -5.66276 44.8663 0 0 0 0 0 0
3 6.14596 -5.14112 46.0786 0 0 0 0 0 0
3 -7.53049 -2.73727 46.0703 0 0 0 0 0 0
3 -6.93987 -4.00551 46.0704 0 0 0 0 0 0
3 6.96383 -4.0019 46.0839 0 0 0 0 0 0
3 7.26183 -3.38079 44.8648 0 0 0 0 0 0
3 -7.75734 -2.07296 44.8576 0 0 0 0 0 0
3 -8.00513 -0.696175 44.8555 0 0 0 0 0 0
3 -8.01105 -0.0013607 46.0714 0 0 0 0 0 0
1 2.73337 -0.0801466 45.9069 0 0 0 0 0 0
1 3.13149 -1.40856 46.1815 0 0 0 0 0 0
3 7.74683 -2.06839 44.8666 0 0 0 0 0 0
3 7.96698 -1.39565 46.079 0 0 0 0 0 0
3 -3.39001 -7.26761 47.2841 0 0 0 0 0 0
3 -4.00911 -6.94565 48.4972 0 0 0 0 0 0
3 -2.07503 -7.74616 47.2848 0 0 0 0 0 0
3 -1.39294 -7.89706 48.4973 0 0 0 0 0 0
3 0.699161 -7.98761 47.2853 0 0 0 0 0 0
3 0.000931021 -8.01835 48.4975 0 0 0 0 0 0
3 2.07731 -7.74303 47.2864 0 0 0 0 0 0
3 2.74547 -7.5291 48.4985 0 0 0 0 0 0
3 4.60625 -6.55631 47.2895 0 0 0 0 0 0
3 4.01402 -6.9332 48.501 0 0 0 0 0 0
3 -5.66997 -5.67114 47.2838 0 0 0 0 0 0
3 -6.56875 -4.59849 47.2834 0 0 0 0 0 0
3 -5.15535 -6.14328 48.4969 0 0 0 0 0 0
3 5.69361 -5.66797 47.295 0 0 0 0 0 0
3 6.24069 -5.18948 48.5005 0 0 0 0 0 0
3 -7.53591 -2.74279 48.4976 0 0 0 0 0 0
3 -6.94476 -4.01102 48.4971 0 0 0 0 0 0
1 0.320068 -2.32354 48.3612 0 0 0 0 0 0
1 2.21919 -2.34397 46.8034 0 0 0 0 0 0
1 2.93123 -3.15274 47.7632 0 0 0 0 0 0
1 4.29114 -2.69222 47.7627 0 0 0 0 0 0
3 7.15462 -4.09838 48.5003 0 0 0 0 0 0
3 7.389 -3.41317 47.2906 0 0 0 0 0 0
3 7.94077 -2.11028 47.2917 0 0 0 0 0 0
3 -7.74305 -2.07557 47.2851 0 0 0 0 0 0
3 -7.98536 -0.697886 47.2849 0 0 0 0 0 0
3 -8.01932 -0.000345256 48.4976 0 0 0 0 0 0
1 0.501718 -0.595001 46.8091 0 0 0 0 0 0
1 -0.388998 -0.162508 47.8543 0 0 0 0 0 0
1 0.926301 -1.93309 47.1158 0 0 0 0 0 0
1 4.43586 -1.63836 46.7438 0 0 0 0 0 0
1 5.62517 -0.408205 48.373 0 0 0 0 0 0
1 5.1802 -0.486662 47.0395 0 0 0 0 0 0
3 8.32748 -1.44851 48.491 0 0 0 0 0 0
3 8.47338 -0.0070218 48.4914 0 0 0 0 0 0
3 -3.38961 -7.26797 49.7098 0 0 0 0 0 0
3 -2.07481 -7.74616 49.7098 0 0 0 0 0 0
3 0.699157 -7.98698 49.7098 0 0 0 0 0 0
3 2.07703 -7.74193 49.7097 0 0 0 0 0 0
3 4.6186 -6.55964 49.7098 0 0 0 0 0 0
3 -5.67019 -5.6717 49.7098 0 0 0 0 0 0
3 -6.5697 -4.60006 49.7099 0 0 0 0 0 0
3 5.73059 -5.69431 49.7101 0 0 0 0 0 0
1 0.912288 -2.79249 50.7053 0 0 0 0 0 0
1 1.01339 -3.09282 49.2981 0 0 0 0 0 0
1 2.35553 -3.52684 49.0105 0 0 0 0 0 0
1 4.34794 -3.04426 50.2865 0 0 0 0 0 0
1 3.0567 -3.52991 50.2888 0 0 0 0 0 0
1 4.82314 -2.54355 49.0363 0 0 0 0 0 0
3 7.58464 -3.49261 49.7128 0 0 0 0 0 0
3 8.19679 -2.18012 49.7135 0 0 0 0 0 0
3 -7.74656 -2.0766 49.7101 0 0 0 0 0 0
3 -7.98957 -0.69856 49.71 0 0 0 0 0 0
1 -0.595572 -0.939786 50.1785 0 0 0 0 0 0
1 -0.501124 -1.23137 48.8143 0 0 0 0 0 0
1 5.49412 -1.12717 50.6896 0 0 0 0 0 0
1 5.5013 -1.36574 49.314 0 0 0 0 0 0
3 -4.00915 -6.94568 50.9224 0 0 0 0 0 0
3 -3.3899 -7.2679 52.1353 0 0 0 0 0 0
3 -1.39292 -7.89716 50.9223 0 0 0 0 0 0
3 -2.07498 -7.74634 52.1348 0 0 0 0 0 0
3 0.000936598 -8.01846 50.9221 0 0 0 0 0 0
3 0.699121 -7.98787 52.1344 0 0 0 0 0 0
3 2.74541 -7.52964 50.9211 0 0 0 0 0 0
3 2.07729 -7.74347 52.1332 0 0 0 0 0 0
3 4.01432 -6.93448 50.9187 0 0 0 0 0 0
3 4.60542 -6.5573 52.1307 0 0 0 0 0 0
3 -5.15536 -6.14335 50.9226 0 0 0 0 0 0
3 -5.6702 -5.67156 52.1356 0 0 0 0 0 0
3 -6.56943 -4.5994 52.1359 0 0 0 0 0 0
3 6.24086 -5.192 50.9218 0 0 0 0 0 0
3 5.68971 -5.66589 52.1266 0 0 0 0 0 0
3 -7.53637 -2.74295 50.9227 0 0 0 0 0 0
3 -6.94498 -4.01106 50.9227 0 0 0 0 0 0
1 2.18603 -3.03034 51.3277 0 0 0 0 0 0
1 2.62694 -2.17243 52.3696 0 0 0 0 0 0
1 4.78014 -2.14904 51.3414 0 0 0 0 0 0
3 7.12767 -4.08186 50.9202 0 0 0 0 0 0
3 7.38423 -3.41436 52.1332 0 0 0 0 0 0
3 7.92094 -2.10656 52.1331 0 0 0 0 0 0
3 -7.74497 -2.07644 52.1354 0 0 0 0 0 0
3 -7.98758 -0.698531 52.1349 0 0 0 0 0 0
3 -8.01988 -0.000503399 50.9224 0 0 0 0 0 0
1 0.580269 -0.851185 52.186 0 0 0 0 0 0
1 0.121207 -1.73081 51.1435 0 0 0 0 0 0
1 1.81887 -1.05667 52.7871 0 0 0 0 0 0
1 4.03296 -0.339688 52.8917 0 0 0 0 0 0
1 4.00422 -1.74639 52.4302 0 0 0 0 0 0
3 8.30339 -1.44485 50.9342 0 0 0 0 0 0
3 8.42986 -0.00804311 50.9305 0 0 0 0 0 0
3 -4.00963 -6.94501 53.3482 0 0 0 0 0 0
3 -3.39092 -7.26598 54.562 0 0 0 0 0 0
3 -1.3933 -7.89737 53.3475 0 0 0 0 0 0
3 -2.07577 -7.74571 54.5603 0 0 0 0 0 0
3 0.00078846 -8.01918 53.3469 0 0 0 0 0 0
3 0.69861 -7.9888 54.5595 0 0 0 0 0 0
3 2.7439 -7.53352 53.3457 0 0 0 0 0 0
3 2.07687 -7.74546 54.5585 0 0 0 0 0 0
3 4.01209 -6.93922 53.3427 0 0 0 0 0 0
3 4.59982 -6.56658 54.5573 0 0 0 0 0 0
3 -5.15569 -6.14136 53.3498 0 0 0 0 0 0
3 -5.66878 -5.66465 54.5633 0 0 0 0 0 0
3 -6.56694 -4.59034 54.5659 0 0 0 0 0 0
3 6.14405 -5.14184 53.3429 0 0 0 0 0 0
3 5.67049 -5.66412 54.555 0 0 0 0 0 0
3 -7.53108 -2.73919 53.3496 0 0 0 0 0 0
3 -6.94191 -4.00824 53.3491 0 0 0 0 0 0
3 6.96061 -4.00268 53.3391 0 0 0 0 0 0
3 7.26087 -3.38252 54.5579 0 0 0 0 0 0
3 -7.73766 -2.07054 54.5626 0 0 0 0 0 0
3 -7.9871 -0.695237 54.563 0 0 0 0 0 0
3 -8.01275 -0.00130737 53.3478 0 0 0 0 0 0
3 7.92625 -1.3913 53.3422 0 0 0 0 0 0
3 7.73742 -2.06766 54.5562 0 0 0 0 0 0
3 -4.0112 -6.93889 55.7751 0 0 0 0 0 0
3 -3.39188 -7.26162 56.9882 0 0 0 0 0 0
3 -1.39384 -7.89654 55.7729 0 0 0 0 0 0
3 -2.07677 -7.74325 56.9856 0 0 0 0 0 0
3 0.000310246 -8.01911 55.7721 0 0 0 0 0 0
3 0.698174 -7.98861 56.9846 0 0 0 0 0 0
3 2.74253 -7.53595 55.7716 0 0 0 0 0 0
3 2.07617 -7.74597 56.9843 0 0 0 0 0 0
3 4.01082 -6.94423 55.7706 0 0 0 0 0 0
3 4.59929 -6.56994 56.984 0 0 0 0 0 0
3 -5.15685 -6.13199 55.7799 0 0 0 0 0 0
3 -5.68671 -5.65723 56.9903 0 0 0 0 0 0
3 -6.63455 -4.61748 56.9939 0 0 0 0 0 0
3 6.14207 -5.15439 55.7707 0 0 0 0 0 0
3 5.67118 -5.67054 56.9837 0 0 0 0 0 0
3 -7.57246 -2.74004 55.7818 0 0 0 0 0 0