ITEM: TIMESTEP
80000
ITEM: NUMBER OF ATOMS
2928
ITEM: BOX BOUNDS pp pp pp
-2.2439859343639071e+01 2.2439859343639071e+01
-2.1784978583781363e+01 2.1784978583781363e+01
-2.2915032400000001e+01 1.3324666840000000e+02
ITEM: ATOMS type x y z f_avestress[1] f_avestress[2] f_avestress[3] f_avestress[4] f_avestress[5] f_avestress[6]
3 -0.480605 -8.3276 -22.007 -153352 126245 670594 -245032 231584 -59281.7
3 -1.17337 -8.28844 -20.7982 -37687 -78497.5 584693 315634 176013 -25682.5
3 0.90593 -8.50744 -22.0149 -208509 151805 309908 231483 295991 35541.1
3 -4.38888 -6.93079 -21.9155 -361961 134308 -5377.87 210944 -71597.5 13297.1
3 -5.00194 -6.63436 -20.7106 175478 -334678 -168340 53580.5 -110899 132110
3 -3.11691 -7.56655 -21.9805 132435 -294145 497503 250019 50105.7 -9775.81
3 -2.50891 -7.86394 -20.7868 -360608 229824 452373 -41405.5 56179.8 -32969.3
3 1.59798 -8.34673 -20.8445 141056 -73500.3 291579 -237653 231647 51441.4
3 3.52037 -7.53774 -22.0284 218287 -222206 -225509 -133622 124842 38733.2
3 2.92007 -7.91762 -20.837 -193578 221050 -74632 80797.9 215105 96560.6
3 4.68032 -6.76474 -22.0412 -218119 176795 -324977 -53503.8 24217 14827.2
3 5.29669 -6.44485 -20.8066 188231 -238650 -247690 -21237.9 -5944.71 -24832
3 -6.00214 -5.56226 -20.6489 -193200 -3442.6 -566266 263492 -88220.4 143278
3 -6.36713 -4.88749 -21.8576 119264 -299116 -655592 -10325.2 -108968 112487
3 6.21339 -5.38261 -20.8878 -127729 76813.1 -21784.7 -122548 -66382.4 -55368.1
3 6.66339 -4.81314 -22.073 86624.4 -371590 -148103 -29919.3 -163132 -203550
3 -6.55195 -3.48678 -21.793 -51221.7 -120271 -772218 251526 -28710.1 36079.4
2 -1.05612 -2.55637 -22.6615 757924 -1.03929e+06 -119901 -756733 -2608.81 -722786
3 7.20169 -3.52214 -22.0603 -99790.6 -155135 47551.1 -269049 -60728 -216744
3 7.47772 -2.92199 -20.8284 84955.9 -314959 -14332.6 33088.4 -31648 -180004
3 -6.6453 -0.664616 -21.8051 90998.1 -356522 -574011 -21599.7 -34976.9 -243059
2 -0.366075 -1.40221 -22.9484 -5297.12 -1.12705e+06 -531502 -810338 389743 211075
3 7.42965 -0.813193 -21.992 106983 -327012 79687 73968.2 80922.4 -107547
3 7.68363 -1.55237 -20.8011 -1155.02 -199888 -11625.1 -246767 -60323.8 -121982
3 -4.43098 -7.09177 -19.4971 -367759 161723 -156480 208595 -81200.5 100398
3 -3.21877 -7.73166 -19.533 117241 -286538 317448 211695 -30997.5 18222.7
3 -0.507141 -8.44117 -19.5862 -110263 131882 519974 -260398 151000 -18089.7
3 0.913698 -8.41773 -19.5857 -132375 136745 302256 235837 227038 35651.2
3 3.59908 -7.73079 -19.6169 263919 -202646 -49994.2 -82675.8 173062 70737.1
3 4.75385 -6.91025 -19.6382 -152083 188788 -95873.2 -11052 99091.2 75730.3
3 -6.12578 -4.85795 -19.4395 125342 -108950 -525380 -80023 -40932.2 83962.6
3 6.62745 -4.87859 -19.6418 125862 -239537 -6189.26 37863.8 -28218.7 -73094.2
3 -6.39897 -2.76767 -20.6027 93236.2 -111596 -673562 -21174.9 -26549.2 -28126.8
3 -6.36941 -3.51622 -19.4023 -15586.3 51685.6 -614833 145292 10395.1 23735.3
3 7.2921 -3.63122 -19.6008 -93173.7 -20494.9 -5232.74 -188513 -81028.8 -83714
3 -6.56 -1.35946 -20.6114 44278.1 -35764.5 -485474 118744 18808.7 -110456
3 -6.74951 -0.700043 -19.385 74976 16257.6 -403880 -81514.1 19127 -167371
1 -2.90055 -0.352079 -20.2416 -494483 7974.85 626373 639850 -424602 10099
1 -1.534 -0.370305 -20.6213 457529 -147463 -1.36265e+06 -520246 644101 628460
1 -0.78238 -1.29495 -19.8661 -715311 242873 427998 388358 248154 -208576
1 1.18822 0.0171698 -20.4138 308658 390423 -1.28992e+06 619314 -708698 408558
1 0.596547 -1.13405 -19.7888 -352164 37193 475524 -539766 -321899 -396533
3 7.66092 -0.858915 -19.5488 79183.4 -73452.4 53088.7 60930.6 -3816.87 -239653
3 0.917598 -8.48985 -17.1915 -212693 133465 211243 245489 142746 48498.1
3 -4.34606 -6.96394 -16.9974 -311294 202153 -149569 136897 -82050.6 70028.2
3 -4.91451 -6.60712 -18.2346 204210 -248902 -197208 -579.12 -91160.7 70412.8
3 -2.57197 -8.02077 -18.3364 -370422 246791 315082 -49711.3 -38395.4 9168.09
3 -3.22964 -7.85085 -17.0937 177250 -254779 214163 170535 -101952 31208.1
3 -1.21875 -8.369 -18.3791 -7486.39 -81092.3 413843 319454 46486.1 -11673.7
3 -0.477914 -8.59634 -17.2089 -198616 117225 346343 -257701 64535.6 -10866.2
3 1.62945 -8.3302 -18.408 127922 -94082.6 271865 -247512 202701 40843.3
3 2.98447 -7.95419 -18.4097 -209542 204184 40071.5 81800.7 200895 121349
3 3.60452 -7.66101 -17.2157 242429 -217910 60614.4 -103714 167010 98609.6
3 5.21105 -6.4011 -18.448 237285 -225049 -48527.7 25901.9 82781.1 49076.5
3 4.73543 -6.83744 -17.1968 -163530 176849 39106.8 -23082.5 97347.2 137944
3 -5.91334 -4.81109 -17.0171 144032 -78082 -404120 -117318 4353.07 -24999.1
3 -5.71356 -5.47909 -18.2251 -118692 72064.5 -487306 186596 -29251.3 66518.4
3 6.22158 -5.44116 -18.4347 -120784 114148 75768.1 -81267.8 -14390.9 50811.2
3 6.58105 -4.94509 -17.1863 148051 -131325 133281 87605.5 -7265.11 -26868.2
3 -6.62434 -2.83128 -18.1916 100860 84948 -514172 -66387.3 62018.5 -69991.6
3 -6.48783 -3.52681 -16.9701 18776.7 63910.4 -476366 88318.4 32299.1 -82343.3
3 7.49967 -2.9964 -18.3573 77459.5 -102268 50694.7 84640.4 -71116.3 -182982
3 7.32706 -3.70503 -17.1294 -107457 117857 142027 -129696 -107839 -62063.2
3 -6.69225 -1.42636 -18.1836 34379.4 144223 -390687 47977 3165.41 -140487
3 -6.94348 -0.735899 -16.957 37658.1 37777.7 -348315 -96933 15440.4 -153817
1 -2.94388 -1.18447 -19.0223 117695 621681 -170646 -325617 1.01567e+06 -366112
1 -3.49724 -0.551687 -17.9033 495663 -161148 -227573 -168461 222933 -880673
1 -1.61531 -1.8103 -18.8399 953959 -15880.6 -777932 -4830.04 -688198 656494
1 -0.999214 -1.9545 -17.5814 959340 -172.688 -638769 -376185 -927045 -406675
1 1.26949 -1.36324 -18.5369 866120 115402 -628332 230886 475897 818922
1 0.460075 -1.73045 -17.4296 540728 281105 -491677 543931 942507 -162353
1 2.26831 -0.292998 -18.4177 124436 816040 -418468 208215 -840555 -629430
3 7.7103 -1.62866 -18.3556 -40854.9 43136.5 42719.5 -199611 -74887 -226048
3 7.62691 -0.988019 -17.1123 36480.9 82842.2 143240 68299.3 -83092.2 -377893
3 -4.18237 -6.9293 -14.6043 -263675 217117 -78688.9 114146 -75412.6 62094.5
3 -4.76691 -6.4984 -15.7718 213480 -204392 -135983 -15349.5 -84188.7 45690
3 -2.52066 -8.20087 -15.8902 -366373 255927 164949 -54798.1 -51636.4 18960.1
3 -3.10398 -7.80803 -14.6444 194591 -228762 109828 156044 -71463 22760.2
3 -0.412985 -8.37771 -14.7848 -243226 116692 197749 -257177 84402.9 -2089.45
3 -1.15456 -8.47195 -15.9782 -14139.9 -103218 280882 316465 27230.9 8637.71
3 0.990287 -8.49678 -14.7518 -260023 124465 92364.9 256599 132847 64390.2
3 1.67122 -8.35526 -15.984 34293.5 -105381 141472 -289559 164802 48832.9
3 3.00751 -8.03188 -16.0108 -271540 177683 88598.5 57846.1 156885 125320
3 3.64826 -7.83026 -14.7775 175785 -211656 101356 -149885 132797 85883.5
3 4.83291 -7.08665 -14.7914 -214317 176949 139212 -49456.7 39111.3 119061
3 5.32708 -6.56435 -16.0055 208929 -208827 110319 -10118.3 70680.5 75316.6
3 -5.94214 -4.86418 -14.5732 146371 -122851 -277409 -88676.6 -5548.5 -54030.1
3 -5.63814 -5.42548 -15.7887 -107729 98119.7 -330175 148748 -518.02 7290.75
3 6.18521 -5.54708 -16.003 -146659 132254 200102 -86858.5 -40466.3 63068.1
3 6.57954 -5.00789 -14.7421 126970 -75652.2 302274 57968.1 -50906.3 -71366.9
3 -6.71373 -2.89657 -15.7805 101842 -28754.9 -403708 -91951.7 43599.5 -135571
3 -6.55411 -3.60112 -14.5803 -8059.59 26468.8 -338831 99055.2 31126.9 -113106
3 7.19756 -3.79855 -14.6901 -92376.7 166934 329993 -140983 -106261 -131362
3 7.35578 -3.05845 -15.8968 67797.7 24182.4 253516 76424 -98476.3 -206920
3 -6.88606 -1.53067 -15.7584 32597.6 23121.8 -315019 50661.2 -39718.3 -153570
3 -6.99543 -0.921298 -14.5245 76238.7 -115281 -299943 -108481 -13194.4 -143575
1 -2.91541 -0.671999 -16.5978 -22728.9 24242 625339 544342 -268178 830441
1 -1.66797 -1.31119 -16.464 -865879 421046 448276 -76590.8 189501 176689
1 -0.660275 -0.735101 -15.6184 836818 -661776 -1.37839e+06 207919 85596.5 -876905
1 0.637464 -0.946867 -16.2131 -669935 222401 325625 -461402 -464643 16464.1
1 1.59165 0.0812689 -16.1017 283624 -583005 394412 -520408 -6895.57 645146
3 7.52987 -1.68797 -15.8602 -28337.4 151820 207434 -212238 -72351.2 -306117
3 7.56662 -1.06699 -14.6033 82169 117664 321960 77760.1 -93788.4 -447076
3 -0.982847 -8.29081 -13.4894 -9500.09 -87264.4 121134 308959 40546 23370.2
3 -4.62371 -6.4237 -13.3743 213347 -191734 -55984 -23604.8 -76705.5 24084.7
3 -2.31766 -7.93652 -13.4372 -361514 247233 62791.7 -49630.8 -15931 -10716.8
3 1.72292 -8.444 -13.5658 -27228.7 -79629.8 60043.7 -297350 130281 57954
3 3.06726 -8.20413 -13.5489 -317052 207276 103648 43605.7 111662 121616
3 5.41133 -6.78969 -13.567 166657 -160842 216404 -26696.3 -6956.35 33970.7
3 -5.64414 -5.47377 -13.3371 -120409 134104 -190230 143343 4535.33 21710.9
3 6.3291 -5.72347 -13.5317 -167206 178469 337282 -92890.2 -85078.8 -12527.5
3 -6.87198 -3.00418 -13.3284 109748 -150348 -328496 -87677.1 -5417.81 -119786
3 7.40271 -3.21992 -13.4182 112054 54476.2 441894 106552 -115062 -277828
3 -7.03212 -1.63288 -13.3068 32992.5 -81706.5 -279848 106722 9468.7 -140591
3 7.5572 -1.83182 -13.4263 3815.13 199465 386961 -188550 -35010.5 -374058
3 -0.240441 -8.49472 -12.3088 -293621 154359 27737.6 -229947 106126 -27374.4
3 -0.889296 -8.27672 -11.0968 -41393.5 -88548.2 -26587.3 337386 97153.2 8115.09
3 -4.06978 -6.81675 -12.1664 -239832 223318 -51727.1 120624 -13882 31389.3
3 -4.70686 -6.49881 -10.9344 204811 -163173 -92934 30851.3 -75539.2 21487.4
3 -2.84989 -7.51297 -12.2249 189425 -208789 18402.7 155411 -39892.2 10548.6
3 -2.14959 -7.68599 -11.0419 -376661 226009 -41226.9 -15800.4 35505 -52708.4
3 1.11215 -8.63538 -12.3226 -274406 149865 48891.2 265039 146124 92677.1
3 1.80562 -8.74609 -11.1004 -57180.3 -23863.6 50116.3 -292559 132608 50822.7
3 3.73172 -8.02569 -12.3333 146407 -186127 148436 -180979 63999 77215.2
3 3.18949 -8.43437 -11.1027 -316030 246105 162647 50593.5 67730.7 114408
3 4.94065 -7.32312 -12.3125 -219440 179388 231084 -57761.9 -26929.7 80890.4
3 5.47594 -6.93201 -11.0485 219411 -124116 318998 -40619.5 -69143.2 -42501.5
3 -6.21362 -4.99696 -12.147 145383 -132963 -193309 -53263.5 -72903.3 -10018.7
3 -5.74378 -5.54225 -10.9179 -86120 109728 -154379 176438 -9586.09 49437.8
3 6.27376 -5.78719 -11.0537 -110588 192413 438752 -78092.1 -98284.5 -105235
3 6.62736 -5.16991 -12.3036 173555 -63282 421486 62279.7 -98571.6 -138738
3 -6.86268 -3.76476 -12.1174 -17908.3 11038.4 -254475 152583 37946.9 -24361.7
3 -7.04602 -3.05988 -10.901 65739 -97133 -260748 -69839.9 -62081.6 -52377.5
2 0.381609 -3.13608 -11.3443 110794 17207.6 -147550 1.03155e+06 -788366 250341
2 0.251884 -4.23927 -10.4276 -285560 199443 497605 -657297 327527 -44679.5
2 2.506 -3.59387 -10.4894 -910257 769303 298671 125508 -657653 -368119
2 1.77315 -2.73325 -11.3915 775690 -275149 -62488 -292618 463182 542618
3 7.09047 -3.85681 -12.2238 -63601.8 200405 490305 -143335 -98526.7 -226621
3 7.09116 -3.1999 -10.9998 119430 128068 566743 147338 -81258 -383369
3 -7.2005 -1.00734 -12.1078 78568.1 -189617 -298166 -92691.5 -8921.26 -118388
3 -7.38255 -1.67462 -10.8924 -14255.5 -35479.7 -268022 123131 42223.4 -45102.6
2 -0.633426 -2.17868 -11.3998 30777.5 -1.0279e+06 -139563 816970 109524 -306956
2 -2.23845 -0.925809 -10.251 -728940 1.1958e+06 -555923 390868 837865 -132922
2 -1.86119 -2.2753 -10.6453 237842 -261093 83736.3 -1.07772e+06 81499.9 755936
2 -0.246129 -0.80585 -11.4486 -1.66911e+06 247.563 -781183 -642701 437026 442482
2 2.14332 -1.37612 -11.4983 458399 -731642 104869 226643 88570.7 -396554
2 3.23469 -0.809342 -10.721 -745955 853978 42224.6 811045 -537004 882625
3 7.33363 -1.12268 -12.2028 109292 171195 428804 129747 -57873.3 -455049
3 7.28908 -1.81766 -10.9526 -15529.2 272071 442509 -178592 49436.9 -422645
3 -0.260506 -8.68815 -9.91763 -352255 186882 -66442.3 -195404 126856 -48598.3
3 -0.942717 -8.70579 -8.68841 -29526.5 -110103 -102647 367400 113904 -27952.6
3 1.12759 -8.80824 -9.88171 -308606 171779 42557.4 287588 138285 55447.1
3 1.85864 -8.77535 -8.68802 -20162.1 28402.6 155008 -272610 28802.3 -21794.6
3 -4.48785 -6.45781 -8.52095 156714 -198988 -171009 41821.9 -41296 -35092.6
3 -4.07971 -6.93015 -9.76321 -263205 180193 -151265 148481 -19594 -32547.3
3 -2.86612 -7.61716 -9.8143 145067 -227627 -103345 192200 12752.7 -28655.2
3 -2.23702 -8.15134 -8.67702 -389084 194648 -156533 4805.65 54221.9 -93733.5
3 3.91968 -8.28198 -9.87183 180086 -94759.2 257309 -151097 -18345.9 -13802.5
3 3.25865 -8.5258 -8.62449 -262741 273019 257654 90097.9 -37894.6 2635.39
3 5.1375 -7.58738 -9.86155 -153720 244008 339758 -28103.6 -84220.9 -15697.2
3 5.66915 -7.13728 -8.59871 292474 -39607.1 502006 92868.9 -168697 -211090
3 -5.39103 -5.37005 -8.50292 -120520 78559.1 -168698 149213 -22463.4 -27008.8
3 -5.93586 -4.86043 -9.70022 125365 -97101 -147605 -71673.8 -87709.2 -0.767468
2 1.69496 -4.94294 -8.55653 1.14614e+06 316314 -1.15169e+06 276671 154269 -247550
3 6.19999 -5.83081 -8.59732 -49898.2 261055 557878 81179.7 -135157 -294424
3 6.44457 -5.15489 -9.8022 197500 61814.8 551896 210032 -128566 -307700
3 -6.865 -3.01475 -8.40027 34752.1 -101675 -251046 -77275.7 -65384.9 25005.3
3 -6.67467 -3.67251 -9.62121 -95382.2 49482.1 -212741 91345.7 17737.9 20371.7
2 -2.50779 -3.08241 -8.41788 -412733 16841.5 640528 473725 170042 -178538
2 -1.98744 -3.34134 -9.74328 823013 317119 -870611 -447470 -333380 890937
2 -0.915257 -4.31856 -9.64623 347519 522103 -79835.4 -55265.3 746683 -565781
2 -0.791636 -4.70459 -8.26522 310810 -27133.9 515099 288786 -685505 550834
2 1.57083 -4.53248 -9.89862 1.18851e+06 -108930 -670582 404711 -189468 701082
2 3.5157 -3.03394 -9.69257 -114185 256333 -507566 20453.6 -477476 -918099
2 3.62129 -3.41255 -8.30415 -170121 -750538 310042 -107932 353210 818332
3 6.91528 -3.85732 -9.76016 -144338 353793 590484 -4504.72 -35488.9 -358600
3 6.97716 -3.14295 -8.55067 4101.27 314333 646474 267250 -105059 -438107
3 -7.45971 -1.00786 -9.59008 44161.5 -114744 -281511 -75535.6 4238.5 -22568.8
3 -7.36613 -1.69772 -8.37422 -40089.9 -18466.1 -265659 98722.5 105579 30584.7
2 -2.7532 -0.661961 -8.97463 280698 1.30458e+06 -1.48381e+06 299090 216303 9343.35
2 3.88573 -1.63589 -9.80205 -59067.6 498748 -1.04579e+06 370736 -92123.4 1.06068e+06
2 4.13748 -1.13461 -8.48102 -363805 -1.13132e+06 462613 -285261 -76309.1 -353605
3 7.17431 -1.10746 -9.72908 -72890.7 345266 419585 133257 7651.82 -437804
3 7.12204 -1.75949 -8.52502 -167389 440321 457345 -99607 49233 -411284
3 -0.279041 -8.86729 -7.46465 -322110 208139 -46942.6 -183501 70942.8 -54760.1
3 1.11776 -8.84282 -7.48695 -248526 158606 181077 285825 29629.4 -8428.32
3 1.73991 -8.90725 -6.27779 -7062.68 12733.2 344019 -245251 -99785.9 -82141.4
3 -2.30553 -8.37209 -6.2408 -439630 204386 -172766 38943 46587.1 -100443
3 -3.80375 -6.85113 -7.33671 -309771 106799 -181648 159259 -14926.8 -108507
3 -2.86402 -7.88081 -7.40356 105969 -272596 -194617 211753 45950.2 -59797.6
3 3.87091 -8.32924 -7.39096 226765 -60773.4 419739 -108147 -153360 -137514
3 5.10339 -7.62227 -7.38874 -105580 244250 544315 48472.2 -191364 -184928
3 -5.58594 -4.68886 -7.28427 109456 -197087 -168522 26733.9 -87162.7 -28191.4
2 0.486555 -5.01509 -7.74943 -239928 291485 540915 -467446 -583281 -77164.4
3 6.27867 -5.15343 -7.35643 184049 78656.7 663439 272242 -232650 -380699
3 -6.29954 -3.50251 -7.23841 -26748.2 -46164.9 -279236 185487 26740.2 243.073
2 -1.77797 -3.9498 -7.51086 776426 798206 -1.40943e+06 -614879 48674.8 -126555
2 -1.47676 -3.49864 -6.2177 327117 478424 -596250 -1.07035e+06 -545501 -629094
2 0.812804 -4.522 -6.43323 450963 308538 -379273 578574 1.14001e+06 -88995.7
2 2.74953 -4.36142 -7.73929 -964305 319738 544560 -112322 620749 339212
2 2.20823 -4.09438 -6.42123 947907 219836 -544473 6791.3 -547431 -451184
3 6.74526 -3.83967 -7.35015 -150666 381942 652588 30620.1 -116946 -464861
3 -7.46108 -1.00834 -7.15031 93681.8 -96805.2 -260980 -87773.6 -7606.75 9220.54
2 -2.9117 -1.77084 -8.05 104496 -509873 484305 -425089 -97262.8 -256758
2 -2.53803 -1.26946 -6.74201 232222 893340 -991772 419418 -119980 1.02606e+06
2 3.60802 -1.9956 -6.2748 -787411 1.48283e+06 -674472 530051 904145 -232370
2 4.01623 -2.23367 -7.57641 -159439 896651 -1.73778e+06 317253 224101 -87970.8
3 7.24993 -1.10989 -7.29976 -82315.5 216787 304420 187168 -78054.7 -273163
3 -1.03501 -8.91133 -6.29614 -64669.2 -125724 -55670.5 359703 66171.5 -38066.5
3 -0.428474 -9.23813 -5.08155 -312361 158408 105210 -197480 -51339.4 -17806.9
3 1.03008 -9.15988 -5.0692 -224934 105342 353054 288841 -111596 -34130.4
3 -4.23361 -6.34659 -6.13222 80151 -364367 -203750 122907 -26057.4 -62505.4
3 -3.77115 -6.93258 -4.94934 -419267 34116.2 -186071 275704 -17520.8 -90994.8
3 -2.80394 -7.95125 -5.0133 7837.02 -364868 -238313 320451 3612.29 -35036.7
3 3.07315 -8.59391 -6.26263 -238506 273632 436995 131448 -162402 -116700
3 3.61247 -8.3464 -5.00205 191765 -96653.5 593664 -137831 -271426 -206633
3 5.30896 -6.99782 -6.12461 278608 -76108.2 693108 63926.3 -295257 -301253
3 4.65543 -7.43689 -4.91519 -147236 266799 735000 25123.3 -274829 -292380
3 -5.03738 -5.16414 -6.08873 -196223 -62471.6 -194108 265886 -20635.1 -83886.1
3 -5.27361 -4.62138 -4.8466 57096.4 -408109 -185370 117141 -44875.1 -73101.3
3 5.93039 -5.78836 -6.13145 -75586.8 268387 683391 13529.5 -231763 -406477
3 5.99865 -5.11338 -4.87455 222128 -147192 696795 58794.7 -238688 -414161
3 -6.51441 -2.90892 -5.98793 95464.4 -241850 -251092 -2582.35 -89369.7 -48352.1
3 -6.03386 -3.43354 -4.79764 -145301 -199725 -276177 309317 53643.8 -67294
2 -0.130795 -3.76409 -5.7182 245943 -1.00618e+06 -13539.1 685704 246127 -285776
2 0.351964 -2.52394 -5.20968 -1.87758e+06 149790 -1.25144e+06 -328561 -723633 -34690.9
2 2.64657 -2.93306 -5.73328 420565 -855268 149300 344502 145129 -112176
3 6.73703 -3.1703 -6.12456 81373.5 29547.8 563687 221617 -152202 -358725
3 6.52329 -3.82812 -4.91043 -52641.9 80048.1 540851 -176808 -106160 -433839
3 -7.16696 -1.6412 -5.96245 -15168.3 -133861 -285815 178702 113874 6028.64
3 -7.17774 -0.95878 -4.75693 100626 -225301 -196506 -74756.1 46063.2 -95016.6
2 -1.77999 -2.10764 -5.92273 -922709 852471 -131102 637907 -656108 669400
2 -0.636588 -1.53501 -5.32282 178941 -1.50697e+06 -553441 93125.1 -44305.8 -352648
2 1.65852 -2.13245 -5.09788 -1.8574e+06 247969 -907949 -697714 784787 370065
2 2.01593 -0.743768 -5.1562 -88478.8 -660235 -192985 646171 308845 -340157
2 3.21662 -0.642651 -5.91674 76897.6 15880.5 106343 -1.04838e+06 180374 644910
3 7.13696 -1.81886 -6.09342 -5624.65 116860 290778 -177106 -25149.6 -323632
3 7.11952 -1.10952 -4.91057 65673.4 -151518 96474.3 216883 -27380.6 -111905
3 -0.38899 -9.39037 -2.53854 -307387 160067 203026 -178694 -238834 60412.9
3 -1.07377 -9.1108 -3.79403 -153767 -158957 50352.5 378083 -108508 20172.7
3 1.68489 -9.34251 -3.77117 -21406.2 -11220.6 504374 -253011 -239105 -58327.5
3 1.00446 -9.55704 -2.53184 -185873 104599 461743 295237 -278339 -10571.6
3 2.99479 -8.7887 -3.76591 -239244 257210 656387 134022 -266108 -130160
3 -4.19768 -6.45624 -3.68764 64748.3 -500525 -210767 209960 -25296.2 -45792.8
3 -3.83408 -7.05201 -2.45968 -438046 84088.1 -163043 273618 22102.6 65219
3 -2.23865 -8.32091 -3.74504 -540605 193196 -117247 73506.3 -52096.2 26513.5
3 -2.84411 -8.04624 -2.49533 11894.9 -347877 -164133 311532 -87168.8 45539.7
3 3.55024 -8.48674 -2.47485 187365 -129927 719926 -156721 -314229 -186752
3 4.43677 -7.41258 -2.44012 -195162 257987 811317 -9995.77 -249193 -257047
3 4.87191 -6.88009 -3.6502 214456 -187888 785471 -70115.8 -280300 -319066
3 -5.42105 -4.76104 -2.40068 66193.7 -335171 -93026.8 59286.8 79475.6 -115589
3 -4.99663 -5.27817 -3.62356 -273130 -166769 -159079 345227 42773.6 -36900.4
3 5.54739 -5.6733 -3.68787 -164466 161344 747063 -144502 -197725 -391234
3 5.71156 -5.0124 -2.5054 189437 -302154 670158 21343.7 -185094 -321140
3 -5.99701 -3.49694 -2.38214 -157944 -107698 -224558 240176 143814 -112625
3 -6.32747 -2.86992 -3.57469 83095.3 -345309 -224411 19225.9 64525.6 -140275
1 0.283904 -2.58012 -2.3929 -465256 13482 -997046 1.02766e+06 -670158 788969
3 6.48757 -3.10483 -3.71846 149548 -324583 397827 131968 -84529 -293886
3 6.1749 -3.73086 -2.52523 -91365.8 -71429.5 401522 -267142 -64720.7 -292879
3 -6.77333 -1.53759 -3.52078 -56789.9 -199123 -253246 219226 103137 -153624
3 -6.8125 -0.85057 -2.2843 88141.2 -78721.8 -129643 -119824 159197 -312282
1 -0.845559 -1.82112 -2.5402 -1.2572e+06 -608221 -951094 1.0482e+06 285085 88332.8
3 6.93636 -1.79639 -3.69832 40565.5 -254153 73988.9 -226725 -6386.29 -200292
3 7.02015 -1.0905 -2.53464 39527.3 -310706 -40833.3 215609 -19279.2 -105462
3 -1.08889 -9.12077 -1.30646 78946.9 -122089 147904 259009 -256104 54161.8
3 1.68361 -9.50315 -1.28807 115146 -10777.3 552425 -207828 -371784 -53808
3 2.9882 -8.95462 -1.26335 -102692 250333 708152 166785 -313120 -147042
3 -4.29584 -6.59841 -1.20625 137932 -221655 -127126 52628.9 34623 -30848.8
3 -2.26343 -8.39008 -1.29661 -319008 230155 -17178.8 -62489.4 -170573 178127
3 -2.8283 -8.14655 -0.0391497 277091 -124620 8695.72 -75341.3 -134712 79846.2
3 4.77744 -6.86296 -1.22602 232242 -183317 766423 3282.96 -220749 -264422
3 -5.11621 -5.46866 -1.18768 -204425 92791.6 -63052.3 142718 99911.9 -21590.1
3 -5.48548 -4.90906 0.0426017 35825.3 180058 1797.91 -171720 122639 -133256
3 5.37915 -5.63647 -1.30317 -157719 191859 713187 -105617 -120841 -255538
3 -6.23921 -2.86518 -1.16196 82211.2 501.534 -147635 -64684.9 199239 -235509
1 -0.954412 -4.38739 -1.40682 -58528.2 583114 63933.1 -302150 872641 -216896
1 -2.15631 -3.50555 -1.48339 1.26012e+06 -550902 -787735 -567716 8538.02 952945
1 -2.14375 -2.23976 -2.12189 375154 -1.40175e+06 -221345 -924092 87970.7 267857
1 0.26791 -3.92176 -1.94148 80711.3 -333587 335504 -632690 -38721.8 -256934
1 1.58604 -4.17284 -1.37179 747415 -633045 -344997 514497 301713 1.00775e+06
1 2.42365 -2.99107 -1.63955 -610171 833402 -456836 70828.6 -817017 -354887
3 6.49139 -3.12439 -1.31719 142874 -369358 240551 139071 -60516.4 -175672
3 -6.59334 -1.55578 -1.11937 370.125 111633 -156149 122894 115120 -306679
1 -3.36508 -1.09575 -0.311739 -76025.1 1.15239e+06 -1.08311e+06 -173454 595298 499728
1 -2.79787 -1.01929 -1.59522 -1.2422e+06 1.12202e+06 -240460 -138399 574940 245424
1 -0.694155 -0.432625 -2.37207 -945502 -629972 -594443 -1.03727e+06 -148653 -216369
1 1.59387 -2.03486 -2.29392 314355 -764898 220388 -418527 190643 258011
1 1.76823 -0.647915 -2.27179 349505 -387494 9068.58 227618 400375 -643736
1 2.71622 -0.0672689 -1.34137 -451953 608859 -2535.11 112927 -701927 593645
3 6.98293 -1.82404 -1.35622 44325.4 -321262 -51301.2 -228315 -37834.9 -135673
3 -2.34283 -8.62852 1.18674 214655 129823 139042 -366726 -195034 225482
3 -0.46485 -9.39035 -0.0719697 146454 14551.4 253822 -283092 -342545 119560
3 -1.1605 -9.3377 1.17837 579754 -120692 240210 19949.1 -282063 112379
3 0.9268 -9.49033 -0.0520267 253101 -36866.9 536069 251570 -329574 -47045.9
3 1.55914 -9.34887 1.20714 521335 -189796 572595 -98035.9 -358613 -32750.8
3 -3.81421 -7.11255 0.0118167 -139160 338326 24594.9 -100933 -200.213 146280
3 -4.30732 -6.7069 1.25366 251162 220094 104575 -302845 32475.9 -8675.49
3 3.50614 -8.48116 -0.0329348 378197 -151896 703023 -13669.7 -305854 -204133
3 2.93191 -8.92604 1.18169 288066 129052 697903 323329 -286367 -126328
3 4.49585 -7.52784 -0.0641591 -60377 278802 805330 182238 -180001 -210812
3 5.03123 -7.0314 1.12286 279887 -53664.8 678737 131158 -93372.7 -134262
3 -5.08678 -5.50175 1.24575 -38013.2 504725 71336.9 -199252 78326 -31673.5
1 -0.876592 -4.89642 -0.0473708 -105716 -504586 -103947 554636 -778774 444447
1 -1.99614 -4.37382 0.673016 73236.4 -55013.1 -1.24509e+06 -640772 730679 275916
1 0.38126 -5.11399 0.567605 -142332 -312875 -441217 -187782 -968784 -383191
1 1.6276 -4.72315 -0.0802351 110143 -21779.4 -1.01636e+06 226491 834781 314865
3 5.82999 -5.05623 -0.109764 176513 -209996 559713 108120 -65119.6 -141564
3 5.72053 -5.76697 1.1229 -65823 321376 595861 6040.37 -22881.3 -60148.2
3 -6.22346 -2.97295 1.23194 56472.3 373419 -82257.7 -159514 170147 -157251
3 -6.07993 -3.62289 0.00149372 -75264.8 344828 -102222 10299.8 126530 -154301
1 -2.75919 -3.51359 -0.177268 -818207 119779 367816 358281 -86395 -14985.6
1 -3.28772 -2.34692 0.377681 101391 -445926 275755 35041.1 -6869.02 -780133
1 3.31316 -2.4447 -0.693683 -43876.6 733827 -941710 195510 77431.3 -826192
1 3.34065 -3.03575 0.62144 166505 -1.12142e+06 710765 -48805.6 -105944 54595.2
1 2.506 -4.13605 0.909656 -735492 -239396 704751 -413828 -429130 -168126
3 6.31466 -3.75728 -0.117863 -98095.4 30626.7 315401 -190072 -20387.2 -78257.7
3 6.66574 -3.16241 1.07819 106333 -237561 164636 156843 -166.515 49232.2
3 -6.58654 -0.840256 0.0429777 67008.4 161061 -115375 -148471 172321 -347366
3 -6.5099 -1.56452 1.264 22840.1 438472 -43458.1 3256.51 80962.4 -236080
1 -3.16901 -2.08779 1.78784 -17092.2 -246035 -201020 -348598 -67665.7 1.01266e+06
1 -3.202 -0.0474551 0.680638 477796 -706260 910798 -3100.54 -129248 223412
1 3.467 -0.980938 -0.548986 107929 29567.8 -200422 -220822 96626 920068
1 3.54981 -0.708041 0.877009 207296 -155793 312595 317700 71724.1 -1.08752e+06
3 7.08283 -1.11088 -0.156514 17895.6 -311498 -142707 211777 -32530.1 -72318.2
3 7.04754 -1.80332 1.05159 7366.96 -176787 -40049.9 -183406 -45963.6 42003.2
3 -0.511347 -9.56025 2.39429 408065 46774.8 300629 -308665 -307305 114817
3 -1.20663 -9.41587 3.66059 467362 -97915.2 337684 71074.4 -277644 113591
3 0.88023 -9.42962 2.4218 522447 -121616 536098 194766 -339062 15158.6
3 1.57954 -9.34648 3.63313 368772 -113243 473570 -101190 -251927 -1999.22
3 -3.88076 -7.18405 2.44431 60394.7 392620 238465 -412268 -12269.8 133148
3 -4.36134 -6.65848 3.63653 292396 146716 277075 -279656 -21396.9 118385
3 -2.9461 -8.22391 2.42702 542703 -56741.7 195709 -300972 -143128 155602
3 -2.44521 -8.74171 3.62712 129031 265503 249851 -269851 -128805 176452
3 2.9021 -8.86311 3.60077 131859 207980 519419 281182 -192549 -98595.9
3 3.54177 -8.52702 2.37902 488522 -117819 574801 80084.6 -162497 -86449.9
3 4.66309 -7.68525 2.32978 34410.9 336204 682233 276188 -67911.4 -85666.7
3 5.11861 -7.09415 3.46763 285739 -82851 499138 72259.5 113323 35229.4
3 -5.36535 -4.88162 2.43752 122228 346203 80793.8 -279653 86619.2 -20106.6
3 -5.00274 -5.42208 3.65077 -10435.4 492185 190043 -156573 40850.3 44445.1
1 -0.587738 -4.36967 2.6952 -573465 -560692 481738 691319 122865 42234.2
1 0.536744 -4.84838 1.98751 -789868 -83147.9 324473 -136783 729807 233451
3 5.6747 -5.80392 3.47898 -82126.8 306347 435539 -50186.9 123858 144893
3 5.97648 -5.12111 2.31602 219723 -116209 397180 128889 81428.1 101520
3 -5.93832 -3.61374 2.47394 -12031.4 534265 3855.27 -96381.8 81440.1 -78377.2
3 -6.07814 -2.88828 3.64287 149101 242005 12484.2 -155072 81500.9 -57225.2
1 -2.47325 -2.97316 2.62052 -775100 -6412.63 -39525.7 234462 -676690 438979
1 -1.84933 -4.12612 2.03041 296318 -328458 -1.31168e+06 -478225 129067 -800215
1 -1.61995 -2.49024 3.68015 761632 -592779 116859 -48910.2 611598 -940937
1 1.82731 -4.22388 2.18139 1.02159e+06 -11026.1 -1.21305e+06 331517 -158689 -671564
1 1.96936 -3.21975 3.13782 1.36711e+06 -942981 -61909.2 784384 2954.73 -656127
3 6.4278 -3.78884 2.24543 -43189.5 121192 245960 -148998 23410.5 168131
3 6.60012 -3.17079 3.47409 161725 -147718 126946 140814 109499 257587
3 -6.43534 -0.861681 2.48049 79713.8 309648 -49529.4 -164000 87450.7 -213502
3 -6.18991 -1.53775 3.67013 54591.4 340487 32098.7 15440.3 27394.1 -151295
1 -3.10511 -0.67237 1.97818 210023 683209 -810438 114476 53519.2 -908203
1 -2.27464 -0.167081 2.98596 -425894 1.1394e+06 -270318 -70168.5 -754482 -669268
1 2.12913 -0.914347 3.34342 228810 -1.90619e+06 -615523 -423743 112006 -364942
1 3.46233 -1.96786 1.57903 106863 1.28663e+06 -1.06623e+06 39317.3 471353 68585.3
1 2.74974 -2.06772 2.77381 -999924 744981 17017.9 329560 447932 -129858
3 7.06606 -1.13037 2.28488 36961.1 -266398 -136418 172209 -2092.96 119644
3 6.92059 -1.79954 3.47639 28794.5 -85151.1 50734.8 -173740 -15917.5 278555
3 -0.495221 -9.44014 4.89625 21486.7 125215 343120 -207202 -242552 84417.1
3 0.916286 -9.40755 4.84659 74399.8 61083.8 437596 251785 -293377 -40295.8
3 -4.07455 -7.36435 4.83948 -70069.2 329810 325490 -37424.8 -37575.8 90024
3 -4.42812 -6.71165 6.03869 227891 -122463 342801 -9059.68 -45885.3 78047.2
3 -3.00876 -8.31848 4.85666 326806 -62180.8 331224 46878.1 -130221 93990.7
3 -2.42814 -8.65414 6.08446 -225668 262518 379184 -99292 -116641 93514.6
3 2.91688 -8.64901 6.03835 -296770 217930 317791 152376 -106354 -128879
3 3.53672 -8.41902 4.79053 211783 -117969 394828 -119714 -24203.4 -76722.2
3 4.68386 -7.59841 4.73664 -171691 283464 424424 45474.3 70625.7 -18625.7
3 5.08483 -6.97243 5.92365 236219 -240605 305967 -77193.1 167976 45944
3 -5.38171 -4.82256 4.84417 193390 125879 174777 -123833 3304.43 77616.2
3 -5.13953 -5.50539 6.01701 -104824 200532 210843 92823.8 -23560.6 70292.4
3 5.74621 -5.74618 5.91218 -173019 164147 286129 -154501 182109 175481
3 5.87263 -5.12096 4.68772 225660 -135947 325355 85086.1 215016 216467
3 -5.96248 -3.58569 4.83988 16211.4 311966 131538 44931.9 18324.8 9296.16
3 -6.23972 -2.92395 6.04366 118926 32764.1 178825 -100178 30018.7 -4541.52
1 -0.431874 -3.347 3.7072 489182 632434 -780086 -746855 -655059 -304388
1 0.83302 -2.77179 3.90771 182501 -405832 176136 -1.10846e+06 -153039 -64834.2
3 6.45125 -3.82041 4.69462 -20033.3 106626 192647 -176773 130205 323472
3 6.66197 -3.16285 5.92452 148980 -99212 139661 117601 194772 356672
3 -6.23344 -0.804467 4.83075 94195.9 134852 31245 -144858 -10665.6 -141906
3 -6.37776 -1.51756 6.03185 8060.22 139591 143403 111082 -33210.4 -80257.3
1 -1.49662 -1.09236 3.79111 267751 -916524 508512 -780463 254614 -192093
1 -0.18954 -0.531085 3.93434 -514739 -4183.98 -1.10787e+06 606247 -775906 218573
1 0.9408 -1.33814 4.02218 -960175 -516614 -347316 858305 174665 -546720
3 7.01508 -1.09416 4.72565 72632.7 -139018 -10759.2 168056 39768.3 316064
3 7.02212 -1.83588 5.94434 40720.9 -158.789 115369 -182045 29255.7 423804
3 -1.12271 -9.22397 6.12733 91178.7 -73065.1 424280 241410 -211957 36136.8
3 -0.460387 -9.33742 7.37532 -216661 102397 445255 -199741 -200898 58053.4
3 1.65068 -9.24621 6.06984 -51939 -21851.6 402437 -242531 -206798 -45398.2
3 0.980627 -9.35386 7.35878 -175575 66516.7 412015 251501 -197707 -63279