ITEM: TIMESTEP
60000
ITEM: NUMBER OF ATOMS
2928
ITEM: BOX BOUNDS pp pp pp
-2.2893229833536839e+01 2.2893229833536839e+01
-2.2259400411183897e+01 2.2259400411183897e+01
-1.7337828800000000e+01 1.2766946480000000e+02
ITEM: ATOMS type x y z f_avestress[1] f_avestress[2] f_avestress[3] f_avestress[4] f_avestress[5] f_avestress[6]
3 -1.38614 -8.30626 -16.6203 -102541 55393.9 1.42908e+07 -202298 9519.32 17762.6
3 0.0937322 -8.30458 -16.6251 -129618 75891.3 1.41352e+07 211259 -24567.8 34788.1
3 -5.16104 -6.67753 -16.5228 -239690 204513 1.44137e+07 5573.84 3589.87 20188.7
3 -3.86027 -7.47115 -16.5521 142092 -189761 1.41358e+07 162663 -14736 755.326
3 2.59084 -7.5632 -16.611 151747 -155423 1.42623e+07 -128399 2651.78 7199.61
3 3.79442 -6.75911 -16.6188 -204594 204704 1.42838e+07 5197.97 -10453.3 202.676
3 -6.5393 -4.52916 -16.5292 169450 -282066 1.4192e+07 -82233 -9167.11 5373.34
3 5.31795 -4.5822 -16.6347 133152 -94645.3 1.41863e+07 8772.43 24606 12401.6
3 -7.08175 -3.0996 -16.5354 -107732 -16253.6 1.42078e+07 230860 -31262 -19691.3
3 5.99456 -3.28076 -16.5676 -42784.4 116881 1.44037e+07 -111154 15665.9 3192.16
3 -7.169 -0.571381 -16.5263 15188.1 -32916.7 1.42182e+07 -154447 -57558.2 -77688.4
1 -0.452012 -0.989968 -17.5318 -2072.58 627746 -581823 -509609 -783617 -95732.8
1 2.0355 -0.721399 -17.25 731937 -696830 131183 633548 76571.4 -379118
3 6.76235 -0.789542 -16.6206 127474 -92264.4 1.43189e+07 109449 -3963.13 -4946.16
3 -1.40591 -8.40605 -13.4407 -72737.2 104345 1.42666e+07 -188489 51810.5 11317.8
3 -1.95992 -8.26644 -15.0083 47238.3 -40767.3 1.43168e+07 215689 48672.7 47955.6
3 -5.07864 -6.63882 -13.4181 -225758 233619 1.44083e+07 33813.8 -7691.57 19997
3 -5.50795 -6.20563 -14.9228 191939 -233160 1.44093e+07 47008.1 430.438 23602.4
3 -3.28145 -7.63345 -14.9679 -205426 179173 1.40537e+07 -123930 28226.3 11664.2
3 -3.88722 -7.48749 -13.3944 141414 -153119 1.40081e+07 197107 -1177.77 28173.4
3 0.0987724 -8.34309 -13.4834 -100538 113272 1.41588e+07 188428 41952.6 26000.3
3 0.701381 -8.31157 -15.0322 -15487.7 -59172.6 1.41052e+07 -223727 -8967.2 55178.1
3 2.09497 -7.86892 -15.0334 -225809 171399 1.42944e+07 87743.6 -30217.2 11205
3 2.65197 -7.71544 -13.4955 107331 -142807 1.43136e+07 -184815 -60136.6 6017.74
3 3.8202 -6.82825 -13.4481 -235144 198705 1.41376e+07 -55573 -37786.6 -30958.3
3 4.20235 -6.40572 -15.0548 168252 -163691 1.42542e+07 -49673.8 15652.5 19076.6
3 -6.62542 -4.47727 -13.3669 216258 -277267 1.41566e+07 -53076 15988.4 2127.42
3 -6.40138 -5.02873 -14.9262 -200616 129425 1.41404e+07 172035 14058.8 2093.95
3 4.9945 -5.16936 -15.0457 -151435 152631 1.42152e+07 -96454.2 25104.7 5861.73
3 5.3077 -4.63046 -13.4504 146983 -150553 1.41636e+07 -10278.2 35956.5 33924
3 -7.07236 -3.07237 -13.3528 -46485.6 15230.6 1.42279e+07 230636 -23503.4 -60330.4
3 -7.15832 -2.5417 -14.9614 102716 -155254 1.4264e+07 -161668 -16646.5 -51963.5
2 -1.44243 -2.50807 -13.4498 457592 -158926 147352 766288 -476683 258220
2 -0.0242988 -2.73967 -13.511 268323 -173864 204685 -918511 490489 172917
3 6.02923 -3.36291 -13.4425 -30515.6 58425.2 1.44551e+07 -119394 17866.1 2771.24
3 6.17734 -2.81455 -15.0377 119062 -96763 1.44456e+07 39355.1 21063.2 -5599.78
3 -7.29513 -1.13206 -15.0093 56760.5 -118159 1.42378e+07 198291 -44450.4 -90219.8
3 -7.2064 -0.515603 -13.4102 35959.9 -69444.6 1.41811e+07 -159751 -57693.9 -65199.5
2 -2.0433 -1.24682 -13.4579 682626 -362643 30376.7 503354 10204.3 -621862
2 0.807049 -1.63665 -13.6561 550054 -504670 -67557.3 -600779 -41445.8 -628789
3 6.54793 -1.34633 -15.0399 -10997.5 14880.7 1.4327e+07 -110731 6985.32 -16933.3
3 6.70547 -0.837258 -13.4427 122851 -89251.5 1.43516e+07 121091 19604.3 -31007.9
3 -5.49354 -6.22879 -11.8505 202502 -233925 1.43262e+07 33900.7 -53915.9 11832.3
3 -3.34151 -7.6735 -11.8364 -210076 191219 1.40267e+07 -101630 -6885.2 -15233.7
3 -1.97161 -8.19783 -11.8527 38381.1 -29827.5 1.41588e+07 219393 -9132.84 -44509.8
3 0.71078 -8.35031 -11.8814 27771.5 -26592.5 1.41151e+07 -201470 47806 -39408.1
3 2.09258 -7.90172 -11.8786 -165594 196071 1.43709e+07 99173.9 2119.24 -24279.9
3 4.28949 -6.42089 -11.8832 106787 -212248 1.40208e+07 -71946.1 17700 -36908.6
3 -6.39104 -5.05998 -11.7939 -173326 142614 1.41892e+07 161608 -29204.1 12474.5
2 -0.948869 -4.51064 -12.2769 1.14477e+06 -489462 -190343 -69875.5 56805.8 619327
3 5.00913 -5.21477 -11.8949 -164901 109136 1.41805e+07 -133620 37259.5 -4972.79
3 -7.19341 -2.54298 -11.7837 69144.9 -89574.8 1.42128e+07 -186817 -50712.5 -94246.9
2 -3.00879 -3.24115 -11.7517 37374.4 676005 -361081 35976.3 640186 -707565
2 -3.69527 -1.99352 -11.7535 441788 18762.3 -209193 -195352 -248491 955673
2 -1.96121 -3.59253 -12.6046 -824188 819430 412204 -409398 382832 -303339
2 0.321368 -3.92155 -12.8075 -658967 716898 368348 532877 -445860 -209200
2 1.53618 -3.89978 -12.1183 145399 632424 -479708 74436.9 -618179 -594806
2 2.38114 -2.7059 -12.0815 485678 -52681.9 -132503 141642 380467 998496
3 6.14449 -2.79803 -11.8325 126664 -92363.4 1.44498e+07 51603.2 24232.8 -34315.7
3 -7.27842 -1.12708 -11.8097 33381.3 -51087.6 1.41656e+07 205928 -146614 -23119.2
2 -3.14786 -0.977957 -12.6078 -100419 1298.49 525884 -902766 -70338.9 500637
2 2.04521 -1.60903 -12.876 -44649.2 -204576 520969 865041 44354.9 568779
3 6.64373 -1.43605 -11.8484 31766.5 12725.6 1.4317e+07 -113076 22194.3 -57894.8
3 -1.38967 -8.27677 -10.3047 -101787 12760.8 1.40464e+07 -211865 53972.2 -10501.5
3 0.0725484 -8.31893 -10.2913 -109420 3084.11 1.4151e+07 199198 55139.3 -20561.2
3 -5.06105 -6.64568 -10.2557 -281188 188144 1.42171e+07 -13446.6 26112.4 -3828.4
3 -3.80019 -7.39451 -10.261 126555 -226924 1.40395e+07 134757 15126.5 -37767.2
3 2.67851 -7.69835 -10.326 146817 -252795 1.43861e+07 -93762.2 -24766.2 5216.78
3 3.93901 -6.89216 -10.2668 -305041 121472 1.39951e+07 63849.8 -52203.5 39603
3 -6.63026 -4.51793 -10.2449 115073 -189663 1.43402e+07 -176057 26692.7 -90238.2
2 -0.908251 -4.97475 -10.9068 838567 142826 -1.04501e+06 -18335.5 64991.4 -63382.5
2 -1.94294 -4.60169 -10.0429 -1.01737e+06 86149 793830 84264.2 -666880 132953
2 0.361098 -4.89749 -10.2092 -1.1487e+06 36881.8 877187 20619.7 559268 81334.9
2 1.61596 -4.44088 -10.7528 -296054 -903541 816090 -518711 354588 318823
3 5.44548 -4.72795 -10.3214 56070.1 -159864 1.41956e+07 61248.6 5790.71 -19613.8
3 -7.0508 -3.16261 -10.2136 -190987 85780.6 1.41114e+07 165666 35098.7 -97551
2 -3.05132 -3.81028 -10.4455 -122761 -888659 857580 509693 -388866 367759
2 -3.56479 -2.85445 -9.53455 146759 618214 -1.1029e+06 -334858 138296 203528
2 2.48215 -3.60816 -9.90146 281119 567021 -1.12026e+06 374578 -57965.9 206984
2 2.9283 -2.53652 -10.7283 -160879 -516260 674487 -439732 -269278 -647435
3 6.03983 -3.38634 -10.3461 -110599 92190.6 1.45142e+07 -81667.4 7392.25 -2127.98
3 -7.25324 -0.466985 -10.2785 -223945 43864.2 1.41989e+07 -160835 -63184.5 -55841
2 -3.99494 -1.73532 -10.3321 -285330 -747842 630448 511604 181294 -685871
2 -3.79171 -0.432637 -9.77285 -445100 -671143 531847 -463663 -285486 -715173
2 3.09327 -1.23178 -10.1898 44940.5 -482044 714449 480598 177423 -690372
3 6.62316 -0.752436 -10.2641 131493 -129279 1.42488e+07 113869 33696.2 -21122.3
3 -5.48019 -6.20863 -8.63684 237293 -202121 1.4184e+07 31361.7 48194.9 -36169.3
3 -3.29391 -7.70363 -8.705 -216651 192164 1.41135e+07 -128498 9359.61 -4777.28
3 -1.95369 -8.20187 -8.70659 -2855.97 -37593.4 1.39997e+07 236667 1118.82 2762
3 0.735445 -8.34182 -8.72417 73691.2 -66471.5 1.42077e+07 -203903 -5286.77 5385.61
3 2.06986 -7.79465 -8.73135 -165453 195358 1.43753e+07 132906 -21955.9 64375.7
3 4.24361 -6.39288 -8.67577 158919 -178352 1.40276e+07 -50212.1 -46327.9 72210.6
3 -6.30204 -5.00964 -8.6512 -152468 186393 1.43914e+07 106569 29671.8 -43594.5
2 -1.45968 -4.43315 -8.7272 290017 216835 -227213 128299 968802 -165476
2 -0.0173568 -4.59412 -8.84642 378586 209971 -343274 -129385 -955462 -119447
3 5.09057 -5.17382 -8.70769 -166608 132038 1.42155e+07 -81845.2 -74705.4 3604.27
3 -7.22396 -2.53019 -8.71492 118461 -116335 1.40855e+07 -155446 59870.1 -73729.6
2 -1.95358 -3.49319 -7.83287 682937 -747308 416623 360549 452254 -336337
2 -3.03062 -2.72959 -8.24898 -99120 827225 -477795 -587470 -658644 -242788
2 0.859934 -3.85289 -8.08327 710884 -709518 347463 -446832 -481973 -345123
2 2.07223 -3.37308 -8.59573 -55112 638026 -375423 656710 628050 -308348
3 6.18157 -2.75441 -8.74772 135971 -106783 1.44836e+07 37922.4 29494.4 33277.6
3 -7.35567 -1.10552 -8.67262 61123.3 -68164.2 1.41708e+07 181161 52287.3 -107579
2 -3.19425 -0.332734 -8.4725 388669 -20175.1 -223010 81966.9 311485 895875
2 -2.90916 -1.42083 -7.63847 -7320.03 -176788 494185 834599 38637.6 476572
2 2.24706 -2.04151 -7.9872 -91269.1 -161726 472712 -870923 -85815.6 395972
2 2.73813 -0.999591 -8.80782 495115 -70666.6 -151797 -181584 -299359 936248
3 6.5376 -1.32066 -8.76946 9738.76 12891.8 1.42796e+07 -106291 62312.3 11370.2
3 -1.88839 -8.25675 -5.54747 22464.1 -51388.1 1.40351e+07 213027 11761.6 -76619.1
3 -1.28832 -8.2849 -7.13885 -128081 92962.2 1.40156e+07 -192362 -19054.1 -21280.7
3 0.154352 -8.34488 -7.13337 -125874 110774 1.42292e+07 190391 -32851.7 -24834
3 -4.98409 -6.60765 -7.04919 -211879 226391 1.42214e+07 32645 20298.1 -76700.8
3 -5.4371 -6.20736 -5.49398 203833 -247120 1.42628e+07 39062.4 13881.8 -87538.7
3 -3.84295 -7.49331 -7.1142 153138 -142353 1.42099e+07 175954 40584.7 -41515.5
3 -3.29766 -7.83716 -5.54111 -204213 183927 1.42939e+07 -118174 10702 -44013.9
3 0.716601 -8.28349 -5.57736 -4462.11 -56327.5 1.42276e+07 -224600 -14616.9 -56455
3 2.11107 -7.78348 -5.55276 -233009 160468 1.42231e+07 92947.1 -3784.12 -9567.35
3 2.55989 -7.48828 -7.1257 148760 -122550 1.43392e+07 -148131 30769.2 33268.2
3 3.78916 -6.70131 -7.08681 -209118 215617 1.4121e+07 -29527.8 33890.5 49755.9
3 4.13164 -6.2303 -5.55447 168734 -168022 1.42138e+07 -36472.8 -5150.7 13492.1
3 -6.57956 -4.5189 -7.06464 206646 -170320 1.43838e+07 -87210.6 -24636.5 -47926.5
3 -6.32738 -5.02332 -5.48122 -191993 151650 1.43629e+07 141957 -8943.93 -74050.7
3 5.36897 -4.65769 -7.14926 147435 -124477 1.42221e+07 418.441 -45696.8 -44113.2
3 5.09159 -5.15206 -5.55481 -135489 133771 1.424e+07 -82405.6 6094.6 -32195.7
3 -7.13978 -3.08286 -7.10387 -35242.6 75389.1 1.42097e+07 215192 1130.95 -38892.9
3 -7.23454 -2.51055 -5.519 98145.1 -131380 1.42527e+07 -176185 -26945.8 -33174.7
2 -1.08899 -2.76089 -6.90618 -683027 870455 115700 268868 -518366 433673
2 0.300074 -2.91964 -7.08338 -758288 876549 168107 -197821 472907 361601
3 5.92986 -3.33409 -7.20391 -38540.9 64387.1 1.44451e+07 -102383 67690.4 -3614.21
3 6.1182 -2.7538 -5.59596 108965 -88388.4 1.43824e+07 62731.6 67901.7 -25802
3 -7.31253 -0.498037 -7.08201 31045.9 -71083.3 1.41648e+07 -170204 16391.3 -74685.5
3 -7.46767 -1.09174 -5.4675 36622.2 -86721.8 1.42305e+07 184680 2774.97 -31935.8
2 -1.65567 -1.44518 -6.84409 594601 -326412 -37727.1 -666308 -32577.2 -670988
2 -0.843745 -0.297045 -6.91626 154233 -117859 158073 -905278 498682 166186
2 0.632428 -0.488078 -6.98666 350188 -324867 73777.2 810038 -463505 297329
2 1.1458 -1.79131 -7.08719 689488 -466917 -11486.5 616795 6145.1 -636706
3 6.73765 -0.757089 -7.15703 109367 -135706 1.44056e+07 113844 69831.4 -7553.93
3 6.63048 -1.39948 -5.61418 -52069.1 40680.6 1.44216e+07 -91736.7 86259.2 23386.1
3 -1.29845 -8.31797 -3.99183 -80289.9 46819.1 1.40545e+07 -203036 13803.9 -71499.5
3 -5.00914 -6.64915 -3.97428 -243744 193828 1.43088e+07 2890.4 5154.88 -51847.9
3 -3.80618 -7.50068 -3.97616 142474 -207853 1.42733e+07 150054 -8313.03 -35227.6
3 0.139696 -8.34934 -4.01809 -60263.1 64567.5 1.43096e+07 207720 46282.2 -54044.3
3 2.5658 -7.37781 -3.94349 97177 -187671 1.42383e+07 -149477 -9653.18 -27952.1
3 3.79021 -6.66355 -3.93408 -229169 172112 1.42632e+07 -10943.5 -10178.4 12334.4
3 -6.63275 -4.4919 -3.96074 170692 -199135 1.43524e+07 -97777.7 29205 -50216.7
3 5.33771 -4.63975 -3.97271 104908 -130610 1.4283e+07 15854 -9802.67 -45626
3 -7.0343 -3.07745 -3.94059 -107609 58534 1.42093e+07 210265 -18112.2 -37704.6
3 5.83399 -3.2641 -3.99831 -105926 69435.8 1.42861e+07 -86222.4 20377.4 -79329.9
3 -7.32037 -0.546427 -3.93473 -30919.1 -9798.39 1.42614e+07 -150310 -28686.5 -49016.8
3 6.739 -0.802009 -4.03238 76862.3 -95092.3 1.43903e+07 122954 85950.2 28028.1
3 -1.85687 -8.14847 -2.42293 13906.9 -81381.6 1.40102e+07 217465 -21717.6 -49217.7
3 -5.41799 -6.15705 -2.36318 195524 -235168 1.43524e+07 7376.23 32712.8 -70896.2
3 -3.22853 -7.66225 -2.41818 -206510 164839 1.43026e+07 -130681 -6049.12 1405.78
3 0.715452 -8.33267 -2.44986 58763.3 -94671.9 1.42708e+07 -205166 53690.8 -29181.4
3 2.00921 -7.68671 -2.4595 -202944 148439 1.42811e+07 120781 11790 10429.5
3 4.20322 -6.32051 -2.33291 158496 -181851 1.41948e+07 -17109.1 3953.51 -615.755
3 -6.33737 -5.01357 -2.32825 -211621 155116 1.43036e+07 116535 25441.6 -69602.2
3 5.02987 -5.09267 -2.38837 -162621 139153 1.4408e+07 -64508.5 7003.43 4652.04
3 -7.26499 -2.52384 -2.40129 76978.6 -103546 1.42491e+07 -199204 18275.3 -56899.5
3 6.22992 -2.73279 -2.42381 79860.3 -143341 1.42514e+07 44953.5 8196.95 -44689
3 -7.33542 -1.08061 -2.36219 -213.632 -59358.8 1.42714e+07 193721 -9631.98 -52010.1
3 6.69185 -1.3338 -2.47062 -73942.5 9066.2 1.43373e+07 -115875 62828.9 -6222.65
3 -1.9237 -8.22393 0.749853 27927.8 -58789.6 1.40877e+07 214920 47356.3 -6378.34
3 -1.36601 -8.45028 -0.837011 -140440 46740.5 1.40282e+07 -207399 4799.34 -17447.7
3 -5.033 -6.63576 -0.814531 -215674 214662 1.43793e+07 -29865.2 16203.9 -40972.7
3 -5.37901 -6.24551 0.704072 191821 -252815 1.43416e+07 35627.5 10785.3 13656.2
3 -3.81667 -7.43345 -0.838621 178008 -178811 1.4313e+07 122091 54344.3 1886.86
3 -3.292 -7.6827 0.757219 -193862 154221 1.43306e+07 -134622 56064.3 5372.77
3 0.110317 -8.48604 -0.868751 -156625 63752.5 1.42439e+07 200748 -9792.48 -17221.9
3 0.656475 -8.33987 0.742936 25766.5 -82117.2 1.41974e+07 -209764 -41433.8 -5975.72
3 1.9762 -7.75608 0.732062 -196307 156264 1.44146e+07 118140 -45838.6 3981.24
3 2.50687 -7.4001 -0.857823 136737 -166588 1.44161e+07 -124082 -41889.9 12279.6
3 3.77696 -6.65802 -0.814124 -226543 167237 1.41011e+07 -7402.41 -37247.8 -16919.7
3 4.16844 -6.27537 0.768503 121180 -186768 1.40676e+07 -53878.3 -31919.7 26078.8
3 -6.59872 -4.46446 -0.76046 165348 -197067 1.43005e+07 -105539 16803.7 -86400.1
3 -6.31127 -5.02447 0.790926 -207751 167633 1.43069e+07 125016 9515.91 -61346.9
3 5.30465 -4.49473 -0.827949 92242.1 -165215 1.44339e+07 10683.4 -4314.87 27732.4
3 4.91012 -4.97046 0.807864 -157342 119993 1.44526e+07 -84351.4 -4003.68 24856
3 -7.18701 -3.15111 -0.827946 -96475 71183.2 1.41978e+07 203067 35673.1 -67902.8
3 -7.34952 -2.59342 0.739839 71718.8 -111345 1.41254e+07 -183841 19783.3 -35054.4
3 5.97443 -3.22329 -0.815372 -112596 14983.9 1.428e+07 -119861 -8261.87 -28445.2
3 6.14237 -2.66313 0.791075 83919.8 -146195 1.43839e+07 45610.2 -56990.7 -61447.6
3 -7.2479 -0.514654 -0.772832 -23755.9 -66148.4 1.42365e+07 -160081 40147.5 -29187.8
3 -7.34818 -1.13361 0.781154 27979.9 -47968.9 1.42376e+07 190480 43672.2 -13236.4
3 6.77667 -0.797819 -0.859439 82265.6 -95120.8 1.43068e+07 122493 30757.1 -24857.9
3 6.68422 -1.27761 0.783704 -74092.7 -18629 1.41582e+07 -123990 -25696 -102199
3 -1.41977 -8.46597 2.31804 -81044.5 90876.5 1.41474e+07 -211649 10424.4 11167.4
3 0.0534467 -8.50752 2.32588 -98999.2 100816 1.42061e+07 200142 -45018.4 13451
3 -4.99258 -6.52721 2.34126 -248085 199362 1.43513e+07 33779.4 6949.18 14440.2
3 -3.85794 -7.40921 2.27976 108260 -176108 1.42122e+07 180591 4806.32 24449.5
3 2.48774 -7.46392 2.33103 114847 -145490 1.43929e+07 -156223 -15151.6 25702.1
3 3.73492 -6.70359 2.34737 -232081 184135 1.4087e+07 -32931.6 -43071.8 23535.5
3 -6.68354 -4.56008 2.36023 195009 -206418 1.43647e+07 -88447.6 5510.23 -62894.2
3 5.36949 -4.55261 2.3919 150839 -125942 1.43424e+07 26649.1 -33769.8 27197.5
3 -7.15583 -3.18461 2.32484 -65361.9 14577.7 1.4023e+07 220549 25315.4 -89353.9
3 6.05528 -3.29072 2.39622 -54357.4 90245.9 1.44972e+07 -92301 -57982.5 35812.4
3 -7.23711 -0.523044 2.38328 14894.9 -21289.4 1.42145e+07 -159832 44849.2 -13935.4
3 6.8087 -0.780609 2.3345 90797.9 -161611 1.4145e+07 106230 -56355.6 -88312.4
3 -2.01214 -8.28796 3.9077 17216.4 -9564.98 1.41636e+07 215823 -1030.45 -26014.9
3 -5.49426 -6.1377 3.9 214740 -215101 1.43667e+07 55541.2 10117.2 -55080.9
3 -3.32692 -7.67478 3.87242 -201259 216610 1.42156e+07 -89362 -24233.3 -17801.1
3 0.580263 -8.37137 3.94148 24666 -25876.2 1.41539e+07 -213142 -36796.5 9336.93
3 1.96755 -7.79746 3.94636 -212373 199550 1.43005e+07 83210.2 -15277.9 -13688.1
3 -6.35731 -5.01625 3.8973 -174639 174667 1.43002e+07 153999 -23007.4 -71264
1 0.124253 -4.18979 4.19356 -795124 450418 606414 488667 -566996 -214976
3 4.16241 -6.29294 3.93895 156054 -142254 1.41628e+07 -73723.1 -56720.6 -46433.8
3 5.00514 -5.06318 3.96109 -125478 122371 1.42201e+07 -100712 -71287.5 -30465.8
3 -7.29023 -2.58811 3.91191 120412 -180503 1.40129e+07 -155692 -34334.1 -85170
1 -0.376863 -3.11485 3.33833 191701 179875 -83451.6 -671313 742426 210728
1 -1.81133 -3.13054 3.36447 460798 -142150 -9777.35 614830 -685065 377295
1 -2.2601 -4.10197 4.31977 -894263 616480 532413 -112491 559787 -360632
1 0.362892 -1.94974 3.01112 489239 -527511 289339 -764557 111121 -406833
1 1.57072 -1.64149 3.81667 171481 -104867 127918 867790 -117999 636144
3 6.21535 -2.76648 3.96914 152107 -104071 1.45286e+07 48034.2 -54950.3 37489.5
3 -7.33243 -1.11947 3.9088 79651.7 -114369 1.41367e+07 186893 -17909.2 -76668.9
1 -3.60845 -1.54667 4.02248 -272525 459137 82710.3 -775079 328122 612923
1 -2.48242 -1.89812 3.11378 763381 -825596 314753 355344 -211046 -401210
1 -1.72488 -0.638122 2.91744 -726646 1.01416e+06 -55719.7 134340 568320 86601.5
1 -0.305422 -0.683813 2.80634 -775208 947388 -11824.2 288707 -505934 198579
1 1.63894 -0.259656 4.13405 -294283 614881 -108352 -688952 -462220 -421786
3 6.6772 -1.35806 3.93397 1046.45 20798.6 1.42105e+07 -103027 -63578.1 -33209.8
3 -1.47968 -8.44932 5.43901 -59605.1 42682.9 1.41939e+07 -222238 -38303.6 -67100.8
3 -0.0174071 -8.52136 5.50798 -89723.8 84775.7 1.41428e+07 208716 -26692.4 -28178
3 -5.04415 -6.58682 5.45624 -204463 206421 1.4342e+07 -29320.8 -32032.6 -70872.9
3 -3.84383 -7.40194 5.46542 154952 -139581 1.4168e+07 155551 -28371.2 -72251.5
3 2.42398 -7.45527 5.55291 168461 -212521 1.42801e+07 -91730.6 -52203.1 -42160.8
3 3.65975 -6.66939 5.55859 -245710 154586 1.41926e+07 62021.2 -27420.8 -40219.9
3 -6.68582 -4.54863 5.49285 156169 -242384 1.42151e+07 -117170 -32211.9 -42895.5
1 -1.02485 -4.69024 4.83987 1.02157e+06 -199623 -557589 -127353 19116 634097
1 -0.963819 -4.8933 6.22091 823499 -28819 -850182 -144193 -141207 -431911
1 1.31276 -3.95058 4.98641 -123420 65588.5 15158.8 -144941 -741231 -699270
1 1.33018 -4.19528 6.40422 -299298 -470807 358824 -335718 654633 639722
3 5.22501 -4.52498 5.53819 83781.8 -176822 1.41327e+07 21301.7 -14622 -10472.9
3 -7.28588 -3.20994 5.46956 -149088 33237.1 1.40366e+07 204172 -45990.6 -42277.8
1 -3.30923 -3.76359 5.19973 17298.5 -24791.5 37539.8 168025 519991 -926612
1 -3.96417 -2.49431 5.01573 262847 473437 -806253 -197155 -142964 752340
1 1.95239 -2.61512 4.77855 522666 339698 -733539 302867 335166 781905
1 2.48257 -2.17325 6.08214 -286265 -714446 992155 -563576 -31943.6 -165201
3 5.95224 -3.25317 5.54013 -63162.8 68086.1 1.45382e+07 -103552 -43812.5 27250.4
3 -7.37592 -0.510828 5.47129 -62440.3 -4004.89 1.41262e+07 -154194 -76682.5 -94834.4
1 -4.38026 -2.06776 6.33279 -288392 -1.10591e+06 815979 429820 96788.2 -277698
1 -4.27095 -0.672838 6.64377 -503735 -828585 834526 -618852 -90884.6 -238404
1 2.04105 0.13167 5.42935 419003 808072 -987927 -257299 115985 -336289
1 2.55098 -0.804803 6.40796 155859 -919423 976364 407615 61653.3 -262107
3 6.73038 -0.79873 5.48413 136189 -148338 1.42291e+07 112061 -36140.7 2479.88
3 -2.05543 -8.39638 7.04105 59760.1 -90613.6 1.41972e+07 211805 -24086.5 -21851
3 -1.45446 -8.52746 8.65423 -95494.2 108908 1.42169e+07 -205607 -23092.6 -46443.4
3 0.0891743 -8.58897 8.61858 -104664 116136 1.42107e+07 190645 -32665.7 -15336.3
3 -5.42206 -6.21935 7.06761 192240 -269199 1.43192e+07 -9428.1 -21522.8 -37377.7
3 -5.04947 -6.65356 8.6643 -210355 245002 1.43464e+07 24482.9 -38075.7 -47241.4
3 -3.40343 -7.90164 7.05859 -173981 153517 1.41715e+07 -148168 -28124.7 -61260.4
3 -3.95256 -7.68045 8.67156 151595 -134490 1.41733e+07 162515 -53824.5 -67325.7
3 0.562617 -8.24774 7.09203 55166.2 -122740 1.41647e+07 -201512 -36714.2 -19493
3 1.86051 -7.69268 7.12509 -181845 92402.8 1.43046e+07 154787 -88556.1 20190.2
3 2.41262 -7.44401 8.6827 114994 -130471 1.42714e+07 -144278 -68765.7 46301.9
3 3.61747 -6.60009 8.70312 -195392 197816 1.41738e+07 -39101.1 -85240.4 78332.8
3 -6.74839 -4.56934 8.66078 203526 -208258 1.42863e+07 -89368.3 33379 -26083.4
3 -6.40389 -5.09687 7.07672 -256767 155755 1.41782e+07 111970 20882.1 -33683
1 -2.08326 -4.68473 7.08023 -1.04968e+06 300588 829347 67668.6 -514167 343175
1 0.223114 -4.75819 7.03795 -937707 143819 612792 322652 673638 124527
1 -0.166618 -4.33451 8.38053 282163 305181 -172622 -417263 -885911 -160325
3 4.06522 -6.16857 7.11595 78180.8 -258100 1.41685e+07 6928.66 -71166.9 49238.5
3 4.94221 -5.05595 7.12858 -259917 88598.8 1.42022e+07 -49210.3 -68280.1 44167.8
3 5.22511 -4.53723 8.68613 132554 -128184 1.41915e+07 -21172.1 -98530.6 51865.9
3 -7.25755 -2.53226 7.01779 -3414.42 -111765 1.40641e+07 -226127 61472.5 -43181.5
3 -7.00988 -3.10413 8.61692 -66909 48366.9 1.40769e+07 224446 83118.6 -49084.2
1 -3.31141 -4.18371 6.5663 -120454 -580580 537938 311017 -428455 773681
1 -3.9814 -3.08635 7.30292 212592 700131 -1.12048e+06 -252265 42250.5 -361631
1 -1.62891 -4.2171 8.40856 622081 71564.3 -184773 387312 835086 -355860
1 2.10395 -3.14844 7.0636 351435 465247 -1.07512e+06 362858 -290072 -395152
1 1.81364 -2.74284 8.37036 228030 277864 -203542 841070 330219 -658573
3 5.78032 -3.17815 8.6358 -17184.7 58953.7 1.45222e+07 -108264 -23900.3 25522.7
3 6.16763 -2.74039 7.0494 135809 -112924 1.45296e+07 33149.4 -54118.3 37172
3 -7.43966 -1.11009 7.02524 -127119 -50271.1 1.41303e+07 213312 106161 -101991
3 -7.2985 -0.538897 8.57596 49320.6 -59251.8 1.4094e+07 -173019 95683.4 -56834.2
1 -3.48743 -2.55083 8.53536 -271497 742393 -191813 -729124 -510867 -478646
1 2.24508 -0.354208 7.73775 444275 624006 -613305 -197001 -221894 684269
1 1.84786 -1.30362 8.68132 -270958 404500 229686 -711645 269723 481829
3 6.50228 -1.33249 7.10457 12044.4 3934.09 1.42619e+07 -104932 8892.04 25921
3 6.66253 -0.784746 8.62285 131201 -142046 1.43113e+07 107640 31352.1 16688.6
3 -1.94093 -8.23248 10.2434 -3678.82 -21147.9 1.43057e+07 237849 -33418.6 -56677.9
3 0.572621 -8.45273 10.2494 29669.8 -52012.3 1.42505e+07 -220821 -44980.7 -58473
3 -5.49537 -6.20701 10.2164 205819 -243748 1.43334e+07 63089.1 -86940.5 -41917.2
3 -3.41055 -7.92413 10.2966 -222439 195344 1.42049e+07 -102283 -48242.4 -105490
3 1.8644 -7.72573 10.2591 -212745 188377 1.43103e+07 89316.7 -26303.7 -2520.17
3 -6.45093 -5.09384 10.2302 -180504 150508 1.4392e+07 165480 -17124 -6677.89
3 4.05563 -6.21839 10.245 150507 -161485 1.42245e+07 -82025.6 -41923.5 49586.8
3 4.91328 -5.03811 10.2677 -127651 113150 1.4267e+07 -115918 -45057.5 52735.5
3 -7.07397 -2.55824 10.1995 106907 -147707 1.41306e+07 -158750 24369 -51172.1
1 -2.29906 -3.19952 9.11937 820836 -902345 461569 251626 317074 39053.6
1 0.618412 -3.33772 8.99281 580199 -674049 519970 -628679 -317173 114581
3 6.04239 -2.68934 10.236 133237 -125090 1.4419e+07 24823.7 1911.05 63038.3
3 -7.2963 -1.10334 10.1758 83468.2 -103274 1.41539e+07 195217 35799.6 -20723.5
1 -3.39749 -1.20305 8.83566 64893 51714.2 173778 810985 -181586 511373
1 -1.48184 -2.24525 9.80465 -750206 954111 -11221.7 285593 -517629 182754
1 -2.18234 -0.974958 9.56463 355191 -559528 267110 -842831 51416 -421589
1 -0.0398096 -2.2975 9.73513 -726682 928395 -89019 169862 573449 38583.6
1 0.675946 -1.04383 9.495 744634 -1.0442e+06 281263 403267 -225078 -443148
3 6.4998 -1.32492 10.1836 -9934.6 -7453.22 1.43816e+07 -107641 49075 63939.3
3 -1.38255 -8.33827 11.8353 -123128 60114 1.43808e+07 -212375 -53830.7 -53111.2
3 0.0734797 -8.50751 11.8837 -145744 84362 1.41853e+07 203346 -63942.5 -44562.7
3 -5.11649 -6.61981 11.7482 -271511 204013 1.43068e+07 28471.9 -76147 -36486
3 -3.92333 -7.44022 11.8329 110168 -193645 1.41552e+07 183527 -57102.2 -63275.3
3 2.3679 -7.37482 11.8611 112443 -150671 1.43014e+07 -138277 -17970.3 -5950.11
3 3.59284 -6.64039 11.8261 -237749 192602 1.42238e+07 -34877.3 -54174.3 49297.4
3 -6.69212 -4.57246 11.7705 185656 -215655 1.45175e+07 -102678 -15016.9 -58029.3
3 5.13303 -4.42767 11.852 116165 -119818 1.43174e+07 -20273 -62855.4 41771.9
3 -7.10497 -3.1707 11.7735 -84350.5 28911 1.40599e+07 223007 1672.78 -62098.4
3 5.69361 -3.1822 11.7971 -58917.2 41880.9 1.43595e+07 -127876 -24097.2 34946.7
3 -7.33413 -0.550324 11.7894 9226.95 -68280.9 1.41708e+07 -156552 19576.2 -2100.53
3 6.70167 -0.76971 11.776 134508 -101524 1.44252e+07 103094 44322.5 39098.5
3 -1.45528 -8.32197 14.8977 -155050 55324.6 1.43527e+07 -212118 -63088.5 30807.5
3 0.014515 -8.33187 14.983 -180089 65950.7 1.41899e+07 200016 -77003.6 -4746.24
3 -5.56863 -6.25266 13.3298 200799 -260151 1.42067e+07 32210 -54343.7 -25638.3
3 -5.15347 -6.65996 14.947 -258608 210209 1.41966e+07 2294.05 -34735.9 -14682.9
3 -3.45833 -7.80475 13.3956 -266504 161404 1.41989e+07 -119620 -60484.7 -24242.4
3 -3.96017 -7.51727 14.9421 163115 -189015 1.42803e+07 149786 -11855.4 -24735.7
3 -2.0186 -8.25889 13.408 -27124.4 -68960.3 1.43466e+07 236219 -51204.8 -21510.3
3 0.589187 -8.32672 13.4237 9986.25 -78726.5 1.41903e+07 -222809 -54533.2 -19816
3 1.95464 -7.67892 13.4337 -233707 184137 1.42877e+07 104176 -45661.1 4059.1
3 -6.33399 -4.99801 13.3204 -195229 172022 1.45125e+07 142202 -23560 -27347.5
3 -6.60164 -4.49613 14.9001 153562 -266569 1.45225e+07 -83079.4 -30833.3 20760.8
3 4.0942 -6.18198 13.4104 131845 -157053 1.41836e+07 -57190 -40922.1 72766.5
3 4.90859 -5.03003 13.4259 -134149 134919 1.43794e+07 -108211 -61993.5 41473.3
3 -7.18968 -2.55583 13.3382 85340.6 -170054 1.40013e+07 -158387 36.7884 -11214.6
3 -7.11047 -3.14418 14.8398 -102259 -32117.4 1.39468e+07 241261 -10965.1 -13853.6
3 6.04039 -2.63936 13.3514 115432 -104817 1.43339e+07 16129.4 -30121.6 20609
3 -7.39286 -1.12234 13.3511 40689.3 -117709 1.41807e+07 205203 13194.9 -10236.3
3 -7.29857 -0.460092 14.9368 13753.5 -69494.6 1.41555e+07 -150295 -6730.02 -1889.54
2 -1.56107 -1.15639 14.4412 -932614 417933 752924 214083 202468 -324989
2 -2.54238 -0.166791 14.7636 178880 -323915 482635 295858 219325 -849181
2 -0.57428 -0.784709 13.4422 788475 -321463 -535860 229002 -512844 629434
2 0.670349 -1.28112 13.8028 -331303 402043 226712 -463298 836931 -94772.9
2 0.563129 -1.90074 15.081 -281589 187277 475811 522271 -810022 15964.2
2 1.79368 -0.620275 13.3855 82069.4 -346579 530074 -817322 118361 -407740
2 2.7737 -0.401198 14.4066 415572 -64403.3 -99058.7 660533 -138578 704211
3 6.53495 -1.3238 13.3472 -10331.4 27920.5 1.43751e+07 -129518 56699.1 7509.9
3 -2.04845 -8.26029 16.4551 20063 -66401.3 1.44331e+07 216992 8189.52 31975.5
3 0.614366 -8.14837 16.5658 -3348.49 -100170 1.41934e+07 -219897 -66974.7 -2809.17
3 -5.56293 -6.24187 16.4821 195790 -251395 1.41093e+07 33288.1 -58916.1 23376.3
3 -3.46826 -7.86525 16.5059 -219526 150293 1.42503e+07 -133545 2127.52 -22903.3
3 1.9659 -7.68617 16.5346 -255076 165827 1.42287e+07 91691.2 -43804.5 8161.1
3 2.49537 -7.47322 14.9926 100146 -161526 1.42587e+07 -141553 -22941.5 24910.6
3 3.61015 -6.5725 14.9748 -240768 185431 1.42154e+07 -38436 -24279.2 45194.1
3 -6.33672 -4.94124 16.5268 -204681 162263 1.45496e+07 124940 -63880.5 48621
3 4.02451 -6.16327 16.5261 140501 -137379 1.4308e+07 -53743.6 -73860.6 -32261.2
3 4.98911 -5.09849 16.5025 -138576 148044 1.43897e+07 -103612 -51735.7 -40347.5
3 5.26155 -4.54107 14.9362 119552 -92798.1 1.44064e+07 -21697.4 -68754.1 -3130.03
3 -7.20063 -2.51955 16.4202 82692.9 -186137 1.40174e+07 -162137 -25642.6 -12236.5
2 -0.803885 -1.7925 15.5176 898669 135816 -764049 -379037 442044 396434
3 5.80051 -3.186 14.939 -69178.5 55748.4 1.4316e+07 -103458 -3508.93 -18190.1
3 6.05761 -2.63654 16.5205 101941 -113102 1.43773e+07 94904.1 -72156.7 -36380.4
3 -7.40861 -1.09736 16.4899 47595.9 -142933 1.41552e+07 205534 -27302 -12157.8
2 -2.84626 0.142542 16.1581 345135 -127972 52104.1 262.204 -253695 975966
2 -1.0589 -1.39903 16.8378 989589 16909.3 -733239 -274931 90582 -611664
2 2.75441 -0.980354 15.6674 374346 515318 -767657 263819 530962 363625
2 3.1795 -0.190899 16.8105 -762536 -534355 881944 -685699 -122122 4980.13
2 1.57006 -1.72946 16.0629 129918 27032.1 250226 -279956 -814748 -624196
3 6.63898 -1.32528 16.4976 -208701 57386.4 1.43116e+07 -54217.8 -58506.9 -41985.7
3 6.73195 -0.726214 14.9241 86863.9 -72153.8 1.43569e+07 135170 80564.5 -35614.5
3 -1.47225 -8.30875 18.0742 -71213.5 53592.5 1.44382e+07 -205577 -10002.5 30873.6
3 0.0229368 -8.22408 18.1192 -103213 75584.2 1.41978e+07 212547 -26816.4 21260.2
3 -5.12371 -6.6692 18.04 -274705 195904 1.40779e+07 18973.8 -32535.4 15499.7
3 -3.9413 -7.49761 18.0532 127162 -206415 1.42461e+07 166229 -22211.6 -6095.21
3 2.60774 -7.4853 18.1033 99771.3 -153960 1.42372e+07 -136204 -70501.4 -15974.2
3 3.75201 -6.58203 18.1255 -231072 200760 1.43514e+07 -17898.4 -69439.8 -52703.4
3 -6.55921 -4.42464 18.0301 173221 -225445 1.4547e+07 -110680 -48071 44541.3
3 5.22815 -4.48943 18.0794 124512 -69580.5 1.44157e+07 762.894 -60598.3 -110353
3 -7.08819 -3.07624 18.0429 -103671 26368.3 1.40759e+07 225653 -38874.1 37589
3 5.87065 -3.14485 18.0653 -34646.3 97057.3 1.43797e+07 -100606 -108539 -27017.9
3 -7.18277 -0.587801 17.9969 15460.9 -57817.7 1.41371e+07 -152119 -32942.2 -25926.2
2 -2.13557 -0.454318 17.1833 -661246 544883 382916 32577 -695874 454667
2 -1.7035 0.316337 18.3182 373583 -370392 122293 485122 676289 -449411
2 -0.0324681 -1.1841 17.812 -684452 159803 749844 572939 352657 182223
2 -0.416223 -0.203141 18.7718 97169 331620 -529011 -609755 -778139 -205173
2 2.29659 -0.459937 17.9194 666525 469851 -904281 335045 -62392.3 -408406
2 1.32025 -1.38349 17.4892 -327389 205654 581244 -320586 735881 593543
2 1.98433 0.574886 18.8262 311414 -111861 114965 877455 175941 -435957