ITEM: TIMESTEP
40000
ITEM: NUMBER OF ATOMS
2928
ITEM: BOX BOUNDS pp pp pp
-2.3677128884369480e+01 2.3677128884369480e+01
-2.3098862460962870e+01 2.3098862460962870e+01
-1.1760625200000000e+01 1.2209226120000000e+02
ITEM: ATOMS type x y z f_avestress[1] f_avestress[2] f_avestress[3] f_avestress[4] f_avestress[5] f_avestress[6]
3 -1.84244 -7.05157 -10.6388 -148437 177083 1.08525e+07 -85937.8 -19613.4 -68650.5
3 -0.574002 -7.71785 -10.7165 45952.4 -31054.3 1.08688e+07 150920 -11318 -58709
3 2.10836 -8.08802 -10.6567 16111.7 -11278 1.08453e+07 -225397 -30103.7 -64994.4
3 3.55345 -7.81134 -10.655 -135574 147875 1.08048e+07 175190 -9285.38 -57038
3 5.89817 -6.42936 -10.6655 224946 -258801 1.07605e+07 -85435.6 2250.79 -40495.7
3 -5.2168 -4.68328 -10.6741 -112052 136949 1.08736e+07 41512.1 44170.9 -27524.4
3 -4.00781 -5.47189 -10.6689 117987 -80038.7 1.0849e+07 67158.4 -7331.39 -95840.1
3 6.96327 -5.45404 -10.6255 -251471 203231 1.07359e+07 -108173 -24375.6 -46116.4
3 -6.94557 -2.62431 -10.769 176866 -219007 1.08281e+07 -39016.6 68208.2 -1163.66
2 -3.17498 -1.92683 -11.7165 -697236 35314.4 966187 587320 -135099 367866
2 -1.8171 -2.33802 -11.6941 -883478 243464 936188 -357298 243970 350948
3 7.74362 -2.92291 -10.5906 120255 -185703 1.07303e+07 198561 -6868.39 9965.34
3 -7.53713 -1.35699 -10.694 -72890.9 54608.1 1.0832e+07 201330 38703.2 -51708.7
2 -4.45872 -0.0528537 -11.3451 24669.4 -425826 507170 460320 586857 -484100
2 -3.61611 -1.02117 -10.6993 536244 644986 -834545 -457844 -575052 -107826
2 -0.934578 -1.84267 -10.7286 725700 370817 -933295 402440 361502 -299150
2 0.402046 -1.55829 -11.3482 -309131 -194130 600632 -566290 -631830 -237051
2 1.19234 -0.480752 -10.9457 405879 -1.04876e+06 754541 -10400.7 -297311 64585.1
3 7.99922 -1.47853 -10.6107 22576.8 -85434.9 1.07282e+07 -247023 -15569.3 12029.8
3 -2.36755 -6.74445 -9.19664 80752 -72132.1 1.0889e+07 99250.5 -1600.48 -98289.8
3 -1.82166 -6.97071 -7.75774 -110382 134729 1.0956e+07 -102174 -32482.7 -68441.6
3 -0.49817 -7.56354 -7.74638 89467.3 -70554 1.08907e+07 144718 -58793.4 -52969.5
3 0.065203 -7.79271 -9.16591 -61327.3 110150 1.08954e+07 -178986 -40510.4 -64103.4
3 1.46677 -8.06541 -9.19765 18276 14689.7 1.0849e+07 190212 -10768.9 -68250.1
3 2.07145 -7.97389 -7.71231 -11172 -27780.7 1.08264e+07 -229105 10778.3 -61725.6
3 3.49629 -7.70506 -7.73995 -169391 136214 1.0827e+07 167924 24698.8 -42943.3
3 4.12215 -7.52559 -9.21127 139295 -157343 1.08034e+07 -195842 11411 -53884.5
3 5.41543 -6.88981 -9.20403 -236522 219574 1.07881e+07 65100.9 11973 -22480.9
3 5.81234 -6.38892 -7.76756 231080 -248144 1.07995e+07 -57496.5 -12389.7 -20347.5
3 -5.30861 -4.69216 -7.79357 -152847 125003 1.08953e+07 51219.8 3853.26 -61114.6
3 -5.63014 -4.30541 -9.25497 161858 -140967 1.08908e+07 60797 9073.4 -49923.6
3 -3.56287 -5.82374 -9.2552 -145109 169897 1.08899e+07 -20570.4 -19839.4 -102491
3 -4.11473 -5.53507 -7.79384 92405.1 -139091 1.09372e+07 74897 -2689.85 -90474.9
3 6.88422 -5.39408 -7.78099 -239083 210371 1.07463e+07 -89103.3 -15999 -5401.43
3 7.17679 -4.87529 -9.21645 206312 -275311 1.07213e+07 71883.4 -24362.8 -23641.2
3 -6.56133 -3.18019 -9.32188 -119996 129858 1.08592e+07 131303 23491.5 -26003.9
3 -6.93788 -2.66235 -7.85317 182941 -204030 1.08883e+07 -49787.6 15227.1 -26949.4
3 7.78948 -3.5566 -9.13938 -143119 91109.1 1.07159e+07 -228664 -28458.3 -6435.71
3 7.7502 -2.92461 -7.68303 121990 -133001 1.07433e+07 211546 -40998.3 -23820.5
3 -7.67827 -0.7862 -9.30104 169132 -230467 1.08566e+07 -137862 703.819 -44441.3
3 -7.45449 -1.34127 -7.8237 -86508.1 73360.4 1.09041e+07 191390 -10413.4 -5076.26
2 -2.7233 -0.571445 -9.70725 37358.9 44291.6 180950 -952950 -289591 -86172.9
2 -1.34127 -1.04785 -9.69098 488126 -490363 138507 849216 209938 -272444
3 7.87499 -0.836481 -9.2476 -25353.7 -16528.8 1.07452e+07 222024 -23364.5 -22435.4
3 7.94256 -1.44584 -7.77458 8372.98 -34466.9 1.07736e+07 -237727 -33608.8 -21677.5
3 -2.36775 -6.60244 -6.39238 61923 -115726 1.0961e+07 107435 -23780.3 -48489.6
3 0.0370518 -7.65416 -6.24746 -162398 84855 1.08614e+07 -160383 -243.768 -55997.7
3 1.4518 -8.00553 -6.27571 -89710.6 5949.14 1.08233e+07 194220 -3056.5 -45232.7
3 4.09407 -7.49146 -6.3378 117372 -164866 1.08783e+07 -202994 -7393.46 -35816.1
3 5.26423 -6.7168 -6.30836 -251389 207047 1.0819e+07 57018.8 -9485.96 -19831.6
3 -5.63368 -4.24306 -6.33775 142460 -169991 1.09226e+07 20186.6 25195.5 -66598.4
3 -3.57341 -5.89875 -6.35833 -165232 123484 1.09553e+07 -28603.3 -17993.3 -65841.3
3 7.23186 -4.93951 -6.30181 208335 -227107 1.07729e+07 85097 -19032.4 -39629.1
3 -6.63892 -3.26057 -6.36805 -158029 126466 1.09362e+07 84851.4 23113.2 -5369.13
3 7.67746 -3.54327 -6.28442 -144219 132552 1.07478e+07 -209264 -31664.2 -33164.2
3 -7.61332 -0.780872 -6.37369 127315 -144785 1.08915e+07 -171610 14332.1 11313.7
3 7.91795 -0.828056 -6.28237 -24282.4 11596.3 1.07873e+07 221418 -28658.7 -23572.9
3 -1.82491 -6.90557 -4.82933 -151626 114330 1.09393e+07 -95588.6 -9663.95 -42059.1
3 -2.37993 -6.64799 -3.36963 126435 -110419 1.09388e+07 78666.5 9387.06 -44117.2
3 -0.485333 -7.46811 -4.80857 49103 -90415.6 1.08833e+07 156518 21596.6 -49438.5
3 0.0832323 -7.65305 -3.38444 -87491.5 70353.7 1.08856e+07 -170232 -4758.46 -35595.5
3 2.09058 -7.89038 -4.87048 20470 -25575.1 1.0842e+07 -225108 -18708 -25066.8
3 1.47403 -7.92862 -3.39213 -3491.81 4721.43 1.0818e+07 193978 -34322.2 -27666.5
3 3.53005 -7.79527 -4.88169 -128557 127862 1.0849e+07 177332 -7879.56 -35817.4
3 4.1453 -7.62709 -3.42353 121298 -155545 1.08393e+07 -197803 18353.4 -23515.9
3 5.84574 -6.41556 -4.8072 222752 -248184 1.08173e+07 -64447.2 -24542.8 -20627
3 5.35254 -6.79381 -3.35104 -257175 204323 1.08297e+07 63711.6 -2864.95 -12797.8
3 -5.22479 -4.70865 -4.9221 -126172 142760 1.09709e+07 -3940.12 12550.8 -11465.6
3 -5.73629 -4.30855 -3.48695 146121 -158740 1.09415e+07 -3150.25 293.236 4934.93
3 -4.06512 -5.63769 -4.94229 144890 -125157 1.09558e+07 29948.4 1616.22 -57308.7
3 -3.55587 -5.87357 -3.3566 -123960 141964 1.0962e+07 -51080 14540.4 -21993
3 6.9051 -5.45953 -4.82417 -223497 207487 1.0805e+07 -85242.1 -13166.6 -27833.9
3 7.17644 -4.95867 -3.41519 200706 -271653 1.07934e+07 71350.7 -1050.42 -13418.5
3 -7.0267 -2.72443 -4.93291 149056 -195444 1.09159e+07 -68645 15934.6 9717.23
3 -6.65349 -3.22316 -3.49739 -158484 129499 1.09115e+07 79034.1 17422 25856.2
3 7.76616 -2.9186 -4.87148 117549 -185206 1.07708e+07 194092 -22295.8 -23173
3 7.59342 -3.54686 -3.42678 -165689 98467.9 1.08072e+07 -218536 -30031.1 10782.9
3 -7.56973 -1.38501 -4.91562 -116367 76636.5 1.08887e+07 172707 13680.9 11318.7
3 -7.88311 -0.827775 -3.43889 115314 -163134 1.08444e+07 -162736 30684.6 52189.4
3 7.89388 -1.51187 -4.82845 10678.3 -57468.2 1.07897e+07 -245930 -35646.7 -23129.8
3 7.91643 -0.873191 -3.3296 -36014.1 -34938.9 1.08018e+07 231995 -43548.9 -32119.5
3 -1.86257 -6.9771 -1.88202 -113009 111707 1.09197e+07 -103295 26453.9 -42428.5
3 -0.538854 -7.47452 -1.89857 67829 -73739.7 1.09151e+07 153452 25180 -33126.8
3 2.12436 -8.00173 -1.97592 -33645.3 -28717.8 1.08097e+07 -230329 -11172.3 -19375.3
3 3.57027 -7.83308 -1.99046 -189342 126828 1.08339e+07 167821 2491.82 -13526.2
3 5.91923 -6.5284 -1.92549 225185 -242370 1.08287e+07 -71370.3 4766.8 -25290.9
3 -5.19207 -4.61236 -2.00944 -141922 124035 1.0953e+07 4727.71 20376 25644.4
3 -4.05976 -5.52383 -1.9949 126482 -135445 1.09254e+07 41539.5 750.938 10130.7
3 6.85984 -5.41784 -1.93526 -241337 200060 1.0793e+07 -94530.1 5573 -4863.49
3 -7.06118 -2.72855 -1.99907 151927 -205487 1.09176e+07 -60672.4 6934.05 46611.1
3 7.63235 -2.8946 -1.95455 94941.3 -138305 1.0832e+07 198926 -38307.9 -930.441
3 -7.62599 -1.4002 -1.98922 -141872 68761.2 1.08776e+07 163764 18028.4 40817.9
3 7.90822 -1.52201 -1.88454 720.698 -30142 1.08289e+07 -243323 -55459.8 9036.94
3 -2.47885 -6.71745 -0.550191 88958.9 -124323 1.09034e+07 99415.7 20538.5 -2954.18
3 0.0171418 -7.65083 -0.517732 -86892.5 66524.7 1.09335e+07 -172134 22839.4 -18972.2
3 1.47855 -7.87679 -0.547552 -13585 2996.83 1.08601e+07 198485 4887.48 -5656.15
3 4.10562 -7.53538 -0.501859 132859 -169648 1.08173e+07 -197251 -1605.03 -1883.08
3 5.39611 -6.89803 -0.470489 -252968 207409 1.0828e+07 63820.9 -4077.86 -10723.2
3 -5.67806 -4.10876 -0.533144 141458 -166244 1.09507e+07 -4940.1 13872.5 23539.1
3 -3.67035 -5.89804 -0.574936 -152764 121002 1.09508e+07 -21795.4 17689.2 15170
3 7.17408 -4.89495 -0.461483 205079 -236097 1.07808e+07 94185.5 -13591.1 -5896.75
3 -6.65836 -3.11378 -0.552396 -147216 124265 1.08916e+07 76923.9 10225.6 32556.8
3 7.55806 -3.51356 -0.493069 -140094 119567 1.08026e+07 -207066 -23557.6 361.027
3 -7.92456 -0.767921 -0.597513 104483 -150233 1.0854e+07 -164326 4594.63 46443.8
3 7.76139 -0.872416 -0.432612 -28417.4 31933.1 1.08477e+07 219061 -54937 4326.33
3 -3.73025 -5.97665 2.33529 -153917 128763 1.09778e+07 -41581.1 47820.9 29010.3
3 -2.54422 -6.71569 2.30671 90122.6 -119865 1.09378e+07 97141.1 -5466.92 16309.8
3 -1.95099 -7.024 0.818263 -148464 120955 1.09341e+07 -89572.7 1918.7 293.693
3 -0.570712 -7.46195 0.88874 39263.8 -87006.8 1.09196e+07 153261 358.125 -2268.83
3 -0.00628936 -7.73058 2.37039 -120918 74102.9 1.08968e+07 -172728 -2061.42 -5094
3 2.10134 -8.03244 0.921447 5742.94 -23138.8 1.08776e+07 -219115 13041.6 -13866.5
3 1.37795 -8.03627 2.34734 -38089.4 -7019.48 1.08836e+07 200309 24772.6 -25538.2
3 3.53053 -7.84186 0.969556 -139319 115517 1.08143e+07 177905 14695.8 2391.48
3 4.12996 -7.65489 2.36821 124234 -161794 1.08432e+07 -195809 22648.3 1216.25
3 5.82185 -6.43873 1.01575 205568 -259452 1.08007e+07 -70487.7 2777.84 -519.597
3 5.32324 -6.80906 2.44906 -250681 207870 1.0805e+07 63404.4 11149 7295.1
3 -5.32739 -4.6469 0.895649 -146142 126742 1.09269e+07 19704.2 42508.4 15964.5
3 -5.84676 -4.21793 2.32501 142644 -186098 1.09288e+07 12415.7 35016.6 27041.8
3 -4.26907 -5.59726 0.891458 122539 -134982 1.09731e+07 42305.7 40003.6 3455
3 6.73366 -5.39122 1.00719 -248891 201944 1.07942e+07 -98802.5 -2373.92 -471.865
3 7.14404 -4.84655 2.43773 213895 -251022 1.08159e+07 86240.6 -7509.87 3569.19
3 -6.66823 -3.03721 2.37803 -149978 99888.3 1.08781e+07 91098.9 18559.6 22444.8
3 -6.96808 -2.51704 0.871952 161838 -211060 1.08997e+07 -65513.1 2845.17 42575.8
3 7.68423 -3.52168 2.38431 -148200 103213 1.07762e+07 -217403 -39839.6 15586.4
3 7.79293 -2.94894 0.985322 108596 -140665 1.0803e+07 198317 -32597.8 17104
3 -7.94946 -0.789257 2.32087 112346 -146401 1.08572e+07 -158307 26475.7 33317.9
3 -7.73442 -1.29223 0.845132 -137155 66720.6 1.08482e+07 163418 8711.24 39122
3 8.0237 -0.908071 2.42136 -42103.7 -10046.4 1.08068e+07 225165 -38064.2 15442.8
3 7.84717 -1.51418 1.00842 8959.7 -28275.5 1.08386e+07 -231942 -36921.9 -3243.56
3 -1.89685 -6.82365 3.83756 -165185 134750 1.09294e+07 -91882.5 9039.69 31997
3 -0.571908 -7.43309 3.76643 41199.8 -68074.4 1.09051e+07 154232 12432.3 3188.11
3 2.08635 -8.04176 3.83017 -7213.79 -21769 1.08741e+07 -224831 17025 -4649.29
3 3.5308 -7.90243 3.88541 -164411 125115 1.08387e+07 175568 31902.7 1267.21
3 5.88249 -6.47236 3.94241 205490 -261631 1.08482e+07 -84745 4707.25 -6677.32
3 -5.42407 -4.74275 3.75026 -152184 130268 1.0946e+07 21590 40044.7 46106.9
3 -4.28403 -5.60621 3.76118 112126 -119628 1.0938e+07 57838.7 40156.8 75686.8
3 6.80015 -5.37575 3.96742 -250351 198026 1.08068e+07 -98409.8 -13620.8 -4926.95
3 -6.9868 -2.58805 3.83265 165826 -210564 1.08717e+07 -57835.2 16581.7 28685.8
3 7.87517 -2.95079 3.84862 110127 -150654 1.07829e+07 194031 -49620.9 19242.6
3 -7.66047 -1.33596 3.81744 -101302 66490.3 1.08579e+07 166050 19621.3 35182.5
3 7.98741 -1.52903 3.8736 1446.39 -46140.5 1.08081e+07 -231297 -37175.3 10399.2
3 -3.61043 -5.80713 5.28323 -130185 152275 1.09298e+07 -29925.4 45330.8 89948.3
3 -2.43012 -6.62785 5.27851 103334 -87217 1.0922e+07 85619.1 18584.6 52830.1
3 -1.85419 -6.90893 6.72631 -155121 164529 1.09133e+07 -90003.3 14308.3 21365.2
3 -0.514269 -7.48968 6.71041 51209.5 -53340.8 1.08876e+07 148724 13940.4 -22234.2
3 0.100653 -7.64693 5.2749 -90569.7 69892.5 1.08762e+07 -184473 148.719 -9665.24
3 1.50286 -7.90959 5.27792 -24458.6 3500.6 1.08543e+07 195696 25946.7 -13467
3 2.09724 -7.8666 6.79201 -18690.1 -14391.9 1.0814e+07 -220622 34813.3 -25555.7
3 3.5436 -7.82546 6.828 -162045 129256 1.08007e+07 172185 23482.8 1687.5
3 4.10107 -7.57877 5.3257 118536 -174537 1.08061e+07 -194694 27294.4 10008
3 5.37024 -6.88662 5.34271 -272055 221793 1.08558e+07 56969 16510.7 10496.9
3 5.8066 -6.45873 6.82982 211779 -266446 1.08599e+07 -83177.2 2901.06 24328.7
3 -5.26539 -4.61645 6.75544 -120191 154238 1.09029e+07 51961.1 36866.2 79366.6
3 -5.82761 -4.27108 5.22918 158865 -148672 1.09285e+07 20035.4 47334.1 94153.8
3 -4.12299 -5.50521 6.77476 98922.3 -82266.7 1.09221e+07 78542.8 47407.7 118673
3 6.78887 -5.35213 6.78947 -264166 194199 1.07974e+07 -119133 -35074.5 17478.8
3 7.08479 -4.85415 5.36092 200431 -273139 1.08092e+07 68966.1 -20624.3 7492.27
3 -6.74597 -3.15532 5.24087 -118836 127272 1.08679e+07 102941 22104.6 45519.1
3 -7.00753 -2.5798 6.71059 211325 -170600 1.08391e+07 -50250.9 19918.4 45411
3 7.6619 -3.58172 5.32359 -154492 69819.2 1.07916e+07 -230563 -49233.3 15584.8
3 7.92566 -2.95069 6.73554 102591 -187853 1.08017e+07 187470 -24931.5 23975.6
3 -7.81504 -0.722989 5.24977 143308 -138201 1.08529e+07 -147904 18035.9 21255.2
3 -7.62179 -1.28932 6.71521 -72442.9 86283.7 1.08237e+07 167210 -6232.96 9890.36
1 -2.64652 -0.773934 6.54133 -578592 641928 170425 -808477 361180 -12170.4
1 -1.32768 -1.25896 6.63855 885833 -841248 112904 357384 -120638 341500
3 7.96097 -0.928229 5.30827 -29671 -45581.8 1.08039e+07 216573 -22424.6 22348.8
3 8.09017 -1.51211 6.76404 7841.31 -88509.4 1.08232e+07 -235132 -16613.1 17895.6
3 -2.44097 -6.67542 8.20953 74258.4 -62527.5 1.08802e+07 119169 11513.5 41115.4
3 0.0782165 -7.65005 8.20267 -131770 110008 1.08746e+07 -183942 37424.1 -39150.5
3 1.51132 -7.84641 8.20354 -47536.2 19870.1 1.07972e+07 196463 30194.3 -25694
3 4.1422 -7.68274 8.25143 123722 -141929 1.08008e+07 -201215 18185.6 19966.5
3 5.38134 -6.95496 8.31609 -245157 222492 1.08499e+07 54518.1 10714.5 11009.5
3 -5.67118 -4.20415 8.1594 144823 -164241 1.08729e+07 7301.77 35907.2 76227
3 -3.62596 -5.84653 8.22624 -151111 161585 1.08795e+07 3869.21 47149.4 90194.6
3 7.15209 -4.89257 8.20553 201279 -298302 1.07693e+07 55703.6 -41509.8 31404.6
3 -6.73093 -3.14697 8.15695 -141423 131971 1.08307e+07 95756.1 -15563.5 27644.3
1 -1.7567 -2.63232 8.64237 -1.03271e+06 349985 960245 39735.1 -353343 -195334
3 7.81229 -3.60395 8.21431 -144720 49489.9 1.07928e+07 -241499 -18544.1 13688.7
3 -7.74295 -0.686459 8.1285 101638 -111399 1.07917e+07 -174761 -49706.3 1537.76
1 -3.49737 -1.2122 7.58433 219341 944689 -849538 -354081 637449 -134798
1 -3.09866 -2.18722 8.59298 -386922 -495274 952935 672441 20127.9 -332778
1 -0.897245 -2.15668 7.61615 913657 228831 -954460 188939 -211099 317530
1 0.443776 -1.97714 8.17951 -637740 175539 605181 -368277 674639 48503.6
1 1.25874 -0.901574 7.83002 235131 -902585 801482 -432936 266083 -86610
3 7.91152 -0.852182 8.22331 -12022.6 -66200.5 1.07832e+07 224002 -15840.7 35475.2
3 -1.88719 -6.97632 9.62705 -199564 185907 1.08495e+07 -72748.5 36988 -951.208
3 -2.3872 -6.69518 11.1177 74556.5 -58326 1.08584e+07 123607 49731.5 -34307.9
3 -0.577331 -7.4741 9.64421 21832.6 -45652.9 1.08816e+07 159643 45500.9 -35843
3 0.0383498 -7.61882 11.1691 -126661 120952 1.08931e+07 -194110 39461.3 -47498.8
3 2.06976 -7.87644 9.68058 -7002.61 -7332.7 1.08383e+07 -225029 21857.8 -14348.2
3 1.47324 -7.85615 11.0838 -55269.4 22267.3 1.08595e+07 198112 43162.3 -37319.1
3 3.51449 -7.77501 9.65094 -150167 138897 1.08043e+07 174967 11400.4 8226.11
3 4.12644 -7.52304 11.1525 111471 -150325 1.08168e+07 -208769 28083.6 3081.25
3 5.31206 -6.84194 11.126 -267293 218974 1.08441e+07 43872.6 19351 37287.7
3 5.75394 -6.47045 9.69388 231672 -267731 1.08302e+07 -79111.3 13519.6 40802.1
3 -5.2869 -4.5723 9.6538 -123504 103656 1.08898e+07 23674.5 77234.5 76897.6
3 -5.69951 -4.13028 11.1231 153455 -174322 1.08883e+07 2804.79 102858 84402.9
3 -4.16351 -5.54691 9.71293 121662 -64267.8 1.09018e+07 69060.2 70675 74005
3 -3.60264 -5.90598 11.1853 -140691 164933 1.08844e+07 19969.7 78076.8 24726.2
3 6.66689 -5.33645 9.68871 -253146 196116 1.07845e+07 -117843 -35516.6 52992.9
3 7.15922 -4.9017 11.1437 200238 -269817 1.07566e+07 71768.1 -29029.5 56300.6
3 -6.97676 -2.53716 9.63586 71105.4 -215843 1.08738e+07 -174788 49224.8 51408.8
3 -6.75463 -3.09843 11.1034 -174245 136325 1.08184e+07 72536.9 166452 93444.6
1 -1.00909 -2.68479 9.88627 564700 264589 -365470 -97895.9 857285 244189
1 -1.61359 -2.32101 11.1178 629212 -297305 51069.6 376196 599079 -509943
1 0.371605 -2.27451 9.66417 137389 349304 -274174 177941 -1.00486e+06 -121923
3 7.88015 -2.95794 9.60779 122905 -192681 1.07949e+07 184231 -26870 12723
3 7.60144 -3.54324 11.1152 -135864 82869 1.07771e+07 -227688 -24881.7 34143.6
3 -7.85942 -0.644062 11.0379 135343 -139248 1.08038e+07 -187238 120880 120351
3 -7.64601 -1.23577 9.63591 -266101 122064 1.08338e+07 93118.5 44222.9 62083.5
1 -3.70204 -1.78376 9.88873 158683 129399 -754823 -303580 -256894 753920
1 -2.96724 -1.86184 11.1137 -170432 610047 -293185 -536036 -881518 60142.1
1 -4.40397 -0.559081 9.61002 -446722 -82822 -126156 207666 574098 -886410
1 1.06573 -1.5196 10.5706 675949 -462423 60672 547.326 -529637 -778545
1 2.05538 -0.10248 8.77846 287841 682935 -750138 414598 -213046 665995
1 1.9464 -0.435014 10.1797 -22371.5 910582 -611666 330261 725411 194789
3 8.06926 -1.52159 9.63336 18755.4 -91736.9 1.07747e+07 -237697 19210.2 31301.3
3 7.95834 -0.893247 11.0776 -2501.98 -22483.2 1.0752e+07 223049 18309.5 29440.5
3 -1.88801 -7.04266 12.6373 -204996 168627 1.08787e+07 -65407.8 45038.9 -38025.7
3 -0.552434 -7.58383 12.6581 14622.3 -48804.4 1.08815e+07 175307 34500.5 -50862.3
3 2.0917 -7.96619 12.546 -52007.7 -11831.6 1.0883e+07 -237286 46917.6 -19207.9
3 3.53661 -7.79937 12.575 -215029 146455 1.08351e+07 162343 32594.3 23391.2
3 5.77301 -6.3993 12.5734 229695 -255881 1.08585e+07 -83754.8 12383.9 55976.9
3 -5.13111 -4.51963 12.6347 -118224 151136 1.0879e+07 59119.8 123159 60037.7
3 -4.16426 -5.62765 12.5494 87076 -70245 1.09251e+07 84667.2 75234.6 1733.18
3 6.80356 -5.41221 12.5281 -233431 214332 1.07372e+07 -112350 -18367.9 71487.8
3 -6.94296 -2.46572 12.5384 214435 -177627 1.08123e+07 -28657.9 126479 76650.4
3 7.84559 -2.94969 12.5189 112256 -141895 1.07517e+07 190746 -30933.9 29875.4
3 -7.64369 -1.22463 12.5437 -51734.3 73513.4 1.07866e+07 186367 63051 76311.2
1 -3.12259 -0.829127 12.1109 -288618 31598.4 663156 759448 359867 147066
1 -0.85167 -1.55105 12.1355 -834171 692088 612170 169226 -359628 473943
1 -1.80431 -0.602898 12.7581 817309 -139022 -405792 -578335 -242352 -639689
1 0.490287 -1.17609 11.839 -473231 285094 358949 -504273 362147 543020
3 8.0216 -1.56302 12.56 15798.2 -45124.5 1.0734e+07 -236630 10360.1 15323.2
3 -2.41013 -6.6524 14.0232 93592.9 -101575 1.09033e+07 121178 70376.8 -23774.6
3 0.0349375 -7.7848 14.0454 -166830 126640 1.0894e+07 -183132 27101.2 -35309.1
3 1.49751 -8.0197 14.0215 -86241.2 44420 1.08845e+07 204220 34762.7 -3909.95
3 4.11976 -7.48326 14.0238 100341 -141553 1.08775e+07 -215707 17983 26539.6
3 5.38352 -6.79461 14.0227 -275263 228529 1.08323e+07 22979.8 -24712.8 62554.5
3 -5.58457 -4.10047 14.0202 156032 -146602 1.09123e+07 51279.9 112573 50027.4
3 -3.64376 -5.94199 13.9771 -139566 145732 1.09e+07 13070.3 91790.4 7395.39
3 7.21736 -4.89799 13.9677 213760 -250866 1.07882e+07 73862.6 -29445.4 65057.4
3 -6.55316 -2.99259 14.0141 -112623 109746 1.08301e+07 114996 88420 40077.7
3 7.80064 -3.56239 13.97 -114024 95824.8 1.07784e+07 -224373 -27002.9 43757.7
3 -7.77753 -0.528067 13.9622 163567 -177531 1.08436e+07 -151162 44050.8 54497.2
3 8.12423 -0.860305 14.0249 12131.7 -49665 1.07273e+07 228560 22825.2 37232.1
3 -1.84016 -6.96358 15.5194 -146719 196660 1.08963e+07 -71024 58206.7 -18062.1
3 -2.34317 -6.70274 16.8949 111020 -67491.7 1.08467e+07 124658 12820.5 -53306.8
3 -0.599917 -7.65622 15.5076 63951.3 -15552 1.08932e+07 176310 34460.5 -33925.3
3 0.0085928 -7.80362 16.962 -62921.7 120600 1.09071e+07 -192761 -4699.28 -66510.3
3 1.43795 -7.96668 16.9656 9932.12 66851.5 1.08211e+07 205614 35129.3 -41682.3
3 2.09912 -7.94965 15.4573 -22941.5 24594.1 1.08568e+07 -238672 19610.6 3881.49
3 3.50411 -7.73003 15.5564 -176942 181008 1.08429e+07 159402 14911.5 34005.7
3 4.09483 -7.53615 17.0566 157390 -103896 1.08153e+07 -199919 22718.5 2411.52
3 5.93992 -6.4377 15.5111 228809 -236677 1.0826e+07 -112535 -17276.9 53100
3 5.3063 -6.78433 17.0711 -217553 271151 1.0806e+07 25158.2 13461.1 26457.4
3 -5.20899 -4.60982 15.4669 -101951 115680 1.0952e+07 50498 102379 47830.4
3 -5.69172 -4.17774 16.9367 162846 -166253 1.09262e+07 49125.1 83273.5 54487.7
3 -4.15915 -5.60767 15.4299 105883 -90199 1.09034e+07 72943.8 80818.6 25160.2
3 -3.62064 -5.92277 16.9593 -114133 140536 1.08619e+07 17522 60382 -3322.38
3 6.9261 -5.38967 15.4728 -217680 204593 1.08095e+07 -143651 -30770.9 62101.3
3 7.15636 -4.82986 16.8983 273398 -253448 1.07572e+07 32155.6 26435.2 65559.2
3 -6.61422 -3.06281 16.9384 -108045 84364.7 1.0837e+07 111762 59037.5 34432.5
3 -6.91155 -2.45578 15.3874 176070 -214935 1.08269e+07 -41304.6 65875.6 41376.6
2 -1.18703 -2.34825 17.0795 157536 351560 -61117.9 -892064 370363 461238
2 -0.0146239 -3.0628 16.6746 821981 -809946 379724 612950 -433218 159336
2 0.542372 -4.08206 17.4712 615086 198019 -577094 368086 -823387 303345
2 0.774716 -2.21246 15.8187 -887379 779220 101718 57055.3 431536 -105717
2 2.79555 -3.30456 16.8459 704302 -850378 563024 -307233 399004 43853.2
2 2.15614 -2.29132 16.0072 -568733 1.03906e+06 -84642 -219463 -570141 -289067
3 8.03274 -2.95102 15.3811 171286 -185819 1.07647e+07 167866 -7551.96 84201.3
3 7.90234 -3.5683 16.9069 -95514 67460.9 1.07335e+07 -228025 25286 57437.7
3 -7.74865 -0.653748 16.8691 150495 -184956 1.08468e+07 -156491 24017.9 31314.2
3 -7.50081 -1.1952 15.3956 -96414.1 52512.4 1.08416e+07 170520 28489.6 29740.4
2 -1.12163 -1.03981 16.5407 -389219 180634 256276 798371 191665 -354033
2 0.120372 -0.90946 15.7282 596827 -1.18644e+06 -195934 -508418 -100705 531525
2 2.97024 -1.10067 16.0159 467099 -396244 281718 672382 71429.5 596391
2 4.06339 -1.30068 16.9569 75216.8 -12909.4 215712 -774882 -149844 -676910
3 8.22266 -1.53117 15.412 59745.8 -89578.7 1.07586e+07 -235062 20569.2 49699.6
3 8.1439 -0.853777 16.9244 61243.5 -37851.3 1.07098e+07 236719 40481.5 57874.4
3 -1.87996 -7.02326 18.3393 -178013 23999.3 1.08919e+07 -202386 -30304.2 -25314.2
3 -0.573801 -7.67736 18.3697 121055 -234649 1.09123e+07 132711 3350.24 -1727.35
3 2.06489 -8.02977 18.4289 71350.4 -136265 1.0802e+07 -219493 31585.8 -33325
3 3.45723 -7.82523 18.4767 -102038 66534.4 1.08216e+07 229288 50208.8 3624.46
3 5.77759 -6.37962 18.4508 249512 -255779 1.07766e+07 -34690.1 30193.2 31723.7
3 -5.19212 -4.52514 18.4394 -94923 85969.6 1.09107e+07 77881.6 47540.8 35867
3 -4.104 -5.53472 18.4006 77594 -126623 1.08407e+07 82952.4 35051.6 16380.1
2 -0.0492405 -4.30521 18.7823 -1.24068e+06 -69963.8 690676 -250048 383163 -103081
2 2.26726 -4.42 19.0217 -1.01758e+06 61610.3 596263 -49576.1 -756324 -269207
3 6.7505 -5.32885 18.3987 -226331 225052 1.07287e+07 -72577.9 65213.9 51105.2
3 -6.87239 -2.46422 18.38 195639 -230915 1.08569e+07 -35990.3 37672.7 31062.6
2 -1.14169 -3.50947 19.2154 -414782 -760648 623456 459495 495290 -491503
2 -1.75033 -2.55449 18.3294 553414 604050 -1.00758e+06 -317423 -105045 256349
2 1.98596 -4.20004 17.5935 339012 107759 17525.4 -364630 984869 306617
2 3.95765 -2.69824 17.5049 -74185.2 752989 -279919 618184 -508272 499196
2 3.3346 -3.77078 19.6259 -60709.9 -754205 553397 -294834 -515316 -754970
2 4.1642 -2.84176 18.841 99742.5 632290 -954851 225557 282060 219466
3 7.97751 -2.94182 18.3997 71301.3 -124582 1.07149e+07 196203 52104.7 43073.2
3 -7.60458 -1.22702 18.3434 -93517.1 47222.7 1.08274e+07 169369 14549.3 21692.6
2 -1.53719 0.0377678 17.3289 446516 507718 -587600 341723 -72164.2 -778249
2 -2.21626 -1.42268 19.1292 -49345.4 -495267 1.02996e+06 549085 -271702 410508
2 -2.15489 -0.115438 18.6463 97768.2 -671556 923869 -455293 -13293.1 305264
2 4.67527 -0.494312 19.2649 -469821 -834506 732311 501394 -258823 444508
3 8.18123 -1.49524 18.3716 38103.4 -16213 1.07089e+07 -243224 82601.7 80966.6
3 -2.41263 -6.75634 19.8361 87729.9 -224443 1.08763e+07 18472.9 36021.2 133124
3 -1.85683 -6.94789 21.3302 -165752 153426 1.08826e+07 -78450.3 56197.1 158381
3 -0.564147 -7.5458 21.3315 48160.1 -62468.7 1.08319e+07 175248 40307.8 131966
3 0.0783482 -7.77618 19.9164 -101365 29268.7 1.08431e+07 -225428 55180.3 123070
3 2.05227 -8.00308 21.3978 5607.98 -14529.2 1.07955e+07 -214829 30384 116378
3 1.46383 -8.01791 19.9254 -13688.2 -124045 1.07961e+07 209665 24269.6 102150
3 3.40903 -7.73433 21.4269 -157373 191171 1.07427e+07 168912 15357.1 62243.4
3 4.07776 -7.57938 19.9325 183543 -142902 1.08006e+07 -153401 29931.8 107741
3 5.35261 -6.77141 19.8919 -202806 222373 1.07775e+07 83644.5 16181.7 70977.5
3 5.7395 -6.25381 21.3431 260239 -211034 1.07596e+07 -85050.7 53256.4 61552.7
3 -5.12383 -4.44861 21.2955 -102467 83002.1 1.0907e+07 91933.7 -70155.2 54666.7
3 -5.62627 -4.10498 19.8838 166267 -180160 1.0837e+07 63176 -12487.4 43998
3 -3.62515 -5.8975 19.7651 -163701 138466 1.0849e+07 -48534.4 18115 85255.6
3 -4.12502 -5.4545 21.2791 78712.5 -106092 1.08614e+07 111827 -29883.2 122895
2 1.00458 -4.47145 19.7306 686772 -287908 -1.15574e+06 12374.1 155712 319816
2 0.86065 -3.88112 20.999 967648 -429629 -617557 184252 255521 -709224
3 6.7199 -5.20277 21.3059 -188431 232086 1.07632e+07 -117549 39749.1 66800.8
3 7.07282 -4.80207 19.8634 187882 -222903 1.07358e+07 118016 8126.12 94014.4
3 -6.48395 -2.96444 19.8531 -99512 77756.8 1.08537e+07 108966 -11995.5 46486.4
3 -6.93182 -2.46765 21.2989 183486 -226907 1.08506e+07 -37133 -38382.8 49679.3
2 -1.97188 -1.73885 20.5606 414082 279329 -383425 -131717 510591 -876952
2 -1.36268 -3.07313 20.6412 149764 124138 -288135 -13706.8 -634150 670847
2 -0.329956 -3.21213 21.4956 -597296 400897 354371 -516603 -625859 78976.1
2 3.1374 -3.22179 20.903 -5515.4 207512 143160 -257651 496861 831509
2 4.01182 -2.07521 21.068 448283 431564 -607760 270753 -69903.7 -772807
3 7.86015 -3.55726 19.8745 -164732 127466 1.07286e+07 -177287 26309.8 71105.7
3 7.95418 -2.89571 21.3049 165857 -125892 1.07587e+07 183355 41644.8 61039.5
3 -7.86993 -0.612071 19.8821 144018 -205185 1.08012e+07 -161004 4.30838 39875.4
3 -7.60942 -1.26397 21.2532 -98613.9 32121.4 1.08398e+07 184380 -14151.1 44028.4
2 -1.65558 -0.70858 21.454 133039 -48088.9 274406 -799735 -69640.7 -727824
2 4.52424 -1.77816 19.7403 -179378 -1.03407e+06 891537 -498190 -2268.47 290167
3 7.98889 -1.42812 21.21 59687.5 -19300.5 1.07674e+07 -236551 -13305.5 39167.6
3 8.00476 -0.843249 19.8238 -132130 33305.5 1.076e+07 227972 13712.8 36171.9
3 -2.40368 -6.5879 22.8446 56073.5 -81856.1 1.0873e+07 159071 5384.54 159202
3 0.0154572 -7.78742 22.841 -138236 171016 1.08488e+07 -181415 21398.7 109745
3 1.45201 -7.9559 22.859 -51757.9 69471.4 1.08253e+07 199403 42311.3 66750.2
3 4.01691 -7.38755 22.8311 113716 -106460 1.0756e+07 -227136 51251.9 32308
3 5.23463 -6.6064 22.7707 -251343 258449 1.0762e+07 11909.7 54482.9 24597.7
3 -5.56994 -3.99749 22.6858 147917 -184199 1.09234e+07 68454.3 -53515.1 64745.9
3 -3.58915 -5.75404 22.8148 -159032 135068 1.0881e+07 47384 -37959.5 119419
3 7.1379 -4.76477 22.7144 253476 -254455 1.07572e+07 40505.8 69586.4 56967.1
3 -6.57823 -2.93538 22.6968 -135669 63992.4 1.08702e+07 125701 -59350.3 40378.9
2 0.123519 -2.21528 22.3752 189165 -9708 156363 793880 704450 -189588
2 1.53912 -2.26488 22.5273 776740 -211624 -135022 -599675 -572887 -461656
2 2.0094 -3.28366 21.6579 -896006 599018 578490 145975 234248 286797
3 7.80086 -3.45927 22.7156 -83433.8 83531.8 1.07857e+07 -242582 63817.5 43842.2
3 -7.87468 -0.624996 22.7097 144991 -213631 1.08621e+07 -148414 -9580.49 27143.7
2 -0.534999 -0.923648 22.3677 517461 -718487 208384 629542 126116 474168
2 0.2796 0.329837 22.3631 -927040 663330 -610938 -207666 -561556 -345233
2 2.2563 -1.07551 22.5578 763489 -829943 244503 -410493 -110598 379201
2 1.65494 0.213871 22.4889 -1.18526e+06 827447 -131966 -10998.9 538084 -208974
2 3.576 -1.00028 21.887 -256848 414679 289763 861874 123789 -466046
3 8.06956 -0.811606 22.6515 44341.5 -40003.5 1.08073e+07 239351 14476.3 49515.5
3 -1.91456 -6.89408 24.2813 -216736 174359 1.08879e+07 -46639.2 4252.67 159854
3 -2.42952 -6.52002 25.7014 55396.1 -64229.6 1.09085e+07 120525 29943.8 130986
3 -0.57867 -7.47618 24.2857 -2152.83 -61264.3 1.08338e+07 192079 -6686.94 116813
3 -0.0502074 -7.72691 25.7356 -219095 126411 1.08117e+07 -172913 25273.8 109041
3 1.42095 -7.87389 25.7509 -135518 37646.6 1.08134e+07 211457 21678.2 45898
3 2.03317 -7.97931 24.2808 -52360.5 4086.92 1.08431e+07 -240339 62050.9 54512.3
3 3.49573 -7.57694 24.2781 -205395 167101 1.07992e+07 156423 84709.8 8167.26
3 3.97427 -7.4236 25.7419 92845.6 -169275 1.08502e+07 -214106 72469.5 5573.94
3 5.17018 -6.58167 25.7476 -288697 223854 1.08374e+07 23294.8 72575 55748.3
3 5.73254 -6.19257 24.2595 206018 -272264 1.0784e+07 -118573 54087.2 21450.5
3 -5.14994 -4.34291 24.2513 -114882 115885 1.09459e+07 68410 -45778 91343
3 -5.62873 -3.97448 25.5856 171207 -117460 1.09234e+07 56115.5 -56052.3 69194.5
3 -3.65431 -5.77055 25.7287 -151725 158663 1.08664e+07 27502.3 -14996.8 96025.5
3 -4.08075 -5.30428 24.2911 93703.2 -95947.4 1.08911e+07 88123.8 -21859.5 120589
3 6.80033 -5.26615 24.2282 -247308 177951 1.08127e+07 -153287 67938.2 50629
3 7.00566 -4.70512 25.7752 204680 -277417 1.08226e+07 65169 49712.9 42998.8
3 -6.9462 -2.4578 24.1786 202398 -218666 1.08698e+07 -34392.1 -43832.1 27806.7
3 -6.68489 -2.99569 25.5633 -89069.1 132000 1.08618e+07 111626 -79875.9 32681.1
3 7.68765 -3.42141 25.7143 -137261 78792.4 1.08343e+07 -230428 54454.4 44347.5
3 7.89532 -2.84615 24.2194 148567 -204071 1.08293e+07 171036 67173.4 34129.5
3 -7.96404 -0.653184 25.6006 168109 -146183 1.08167e+07 -150800 -31762.1 22478.1
3 -7.72312 -1.22218 24.1577 -80944.2 64470.8 1.08434e+07 190287 -9347.51 30610.5