ITEM: TIMESTEP
20000
ITEM: NUMBER OF ATOMS
2928
ITEM: BOX BOUNDS pp pp pp
-2.4473473424803800e+01 2.4473473424803800e+01
-2.4211134321785035e+01 2.4211134321785035e+01
-6.1834216000000000e+00 1.1651505760000001e+02
ITEM: ATOMS type x y z f_avestress[1] f_avestress[2] f_avestress[3] f_avestress[4] f_avestress[5] f_avestress[6]
3 0.346698 -8.49577 -5.21677 -183436 82611.7 6.65924e+06 -242162 -30546.5 -58071.5
3 1.77903 -8.43631 -5.23413 -233501 133854 6.57008e+06 246115 -18337.9 -48283.6
3 -3.33975 -6.74099 -5.19323 -307877 206466 6.66053e+06 34805.1 12769 -66264
3 -2.18415 -7.5754 -5.13993 85569.5 -187882 6.63227e+06 201962 20608.9 -70383.4
3 4.29757 -7.43077 -5.26283 162793 -266290 6.57222e+06 -170443 -25443.7 -14572
3 5.38961 -6.50514 -5.18687 -310906 219054 6.56169e+06 -99984.2 -39962.1 -8015.55
3 -5.11454 -4.67086 -5.2068 125138 -184139 6.70968e+06 20889.6 42722.9 -26152.5
3 6.90571 -4.32533 -5.21134 168015 -226146 6.5384e+06 105499 -43738.6 14887.6
3 -5.87202 -3.4989 -5.24542 -89133.7 44049 6.70111e+06 175732 61555.1 -30422.2
3 7.29806 -2.96445 -5.26946 -26515.7 -33795.9 6.57013e+06 -218757 -44808.6 28534.5
3 -6.91919 -0.962157 -5.27511 137139 -135093 6.71816e+06 -76901.6 20386.1 23492.9
2 -2.33467 -0.969021 -5.55696 -158279 -385254 906671 755711 -191928 -258756
2 -3.302 -0.623839 -4.5374 610394 216779 -509676 -331239 -91625.3 731614
2 -1.21042 -1.73331 -5.11098 -739192 325469 640271 22852.2 -650359 -210401
2 0.0746975 -1.37669 -5.70075 1.00179e+06 80488.1 -928693 174095 26855.6 483580
2 1.08656 -1.57068 -4.61388 -713642 164506 842226 -405175 390828 -45456.8
2 2.16964 -0.61703 -4.56904 309488 -828890 1.00488e+06 -357258 161306 -338337
3 7.35946 -0.178372 -5.31707 52446.3 -76473.5 6.61727e+06 129728 -33293 56004.4
3 -0.288211 -8.31781 -3.8755 -1471.75 -61458.6 6.67429e+06 251616 -3008.08 -54123.2
3 0.337861 -8.53201 -2.56275 -112755 73494.2 6.67365e+06 -257328 -9429.5 -40118
3 1.75386 -8.4713 -2.57588 -160265 120255 6.59756e+06 244949 -270.741 -19404
3 2.39217 -8.2894 -3.92926 33417.7 -100819 6.57589e+06 -279052 -29122.2 -32958.3
3 -3.74102 -6.21174 -3.88938 161705 -216556 6.6402e+06 93424.7 7841.4 -70539.7
3 -2.21305 -7.61755 -2.56413 125083 -191539 6.67728e+06 175622 -5014.21 -55184.6
3 -3.39032 -6.75811 -2.50254 -283764 221468 6.64768e+06 11230.6 5067.77 -67635.3
3 -1.62259 -7.89134 -3.85483 -265924 216693 6.6635e+06 -134861 -15907.9 -61809.6
3 3.6617 -7.72382 -3.91531 -309667 238164 6.54868e+06 83287.3 -25993.3 -5130.44
3 4.21649 -7.4149 -2.59434 210150 -248447 6.54673e+06 -138050 -37370 -201.488
3 5.30094 -6.47468 -2.57808 -272098 238584 6.56214e+06 -76998.8 -22644.6 -4639.04
3 -4.74191 -5.22954 -3.89372 -198363 138090 6.69366e+06 126168 17021.1 -41871.1
3 -5.14943 -4.64074 -2.64387 132146 -121489 6.69865e+06 -11463.9 19779.5 -57789.6
3 5.80293 -6.02699 -3.85911 214183 -281466 6.54895e+06 -127.807 -42845.7 -5695.91
3 6.57202 -4.81478 -3.86182 -163367 118847 6.53486e+06 -216461 -43007.2 5506.85
3 6.87253 -4.27812 -2.56372 157298 -188101 6.53438e+06 112091 -35557.2 16193.2
3 -6.13586 -2.91481 -3.90604 124897 -138322 6.67161e+06 -11479.8 33645.4 -19771.1
3 -5.92053 -3.4704 -2.64023 -73501.6 113598 6.66045e+06 150422 27103.9 -21641.5
2 -0.98454 -2.17207 -3.73435 300739 173494 -288231 -175659 947631 281306
3 7.32978 -2.24757 -3.96022 81701.2 -111087 6.58158e+06 118151 -34779.4 30900.1
3 7.16049 -2.8567 -2.58908 -31333.2 11932 6.56907e+06 -204692 -28371.8 4878.92
3 -6.72923 -1.6293 -3.98174 -10888.9 -2222.13 6.67643e+06 152336 27273.6 -8477.17
3 -7.04831 -1.01805 -2.63548 64591.9 -75114.1 6.67574e+06 -109774 17990.6 -36585.1
2 -3.03188 -1.01356 -3.20086 284057 592954 -394334 -468971 -775892 51582.6
2 -1.93434 -1.83493 -2.76797 471951 -263098 22102.4 435857 755473 -520372
2 0.383186 -2.04547 -3.42301 411570 336874 -513877 219408 -911467 -104721
3 7.43652 -0.804269 -3.95241 74144.7 -82628.3 6.59153e+06 -170498 -29270.9 41010.1
3 7.38916 -0.136223 -2.61313 58086.6 -17438.2 6.6145e+06 109645 2604.04 11401.4
3 -0.299861 -8.41152 -1.23691 26452.9 -53434.8 6.65864e+06 249447 -10621.3 -27783.3
3 2.40345 -8.26983 -1.19678 69985.7 -100687 6.60626e+06 -260136 -10378.7 -23757.7
3 -3.8352 -6.23596 -1.23824 186396 -194294 6.64532e+06 57737.2 15443.9 -67804.7
3 -1.64515 -7.82196 -1.24333 -232331 215968 6.69389e+06 -144997 -18321.9 -40683.4
3 3.6885 -7.74561 -1.22681 -272266 242184 6.56576e+06 97711.3 -21805.3 -11372.7
3 -4.83064 -5.21277 -1.27913 -186663 175811 6.672e+06 109250 20448.6 -78737.6
3 5.66922 -5.92334 -1.25868 228287 -262995 6.55124e+06 21948.7 -21973.5 23686.8
3 6.50613 -4.80106 -1.24208 -171827 127759 6.55949e+06 -189005 -27910.9 25265.6
3 -6.34482 -2.97809 -1.32458 122853 -68902.9 6.68321e+06 -24007.8 12708.2 -52560.5
3 7.29334 -2.19551 -1.26574 77317.6 -54524 6.57027e+06 116730 -13749.6 -7180.23
3 -6.80514 -1.61452 -1.30227 -8789.63 46025.5 6.67316e+06 137158 25224.1 -50610.1
2 -3.40759 -0.134223 -2.08112 -448337 -2432.06 842246 747666 222352 324115
2 -2.41652 -0.300704 -1.04154 906324 -95445.1 -529119 -316209 -7545.38 -661509
2 -1.56487 -1.42749 -1.41301 -749203 530830 414866 66815.4 -577420 434772
2 0.824653 -1.58894 -2.17542 781161 -430857 -134483 111801 -375094 -781559
2 -0.187457 -1.22115 -1.19336 -548691 182789 540609 -654864 121036 515059
2 1.94129 -0.655459 -2.03859 -249507 843689 -187720 85924.5 706439 400434
3 7.40236 -0.762467 -1.30839 77152.1 -31456.8 6.60896e+06 -174429 18104.5 -16692.9
3 -0.327224 -8.35374 1.43057 24671.4 -65541.7 6.6362e+06 263358 -13770.3 -32040.4
3 0.377618 -8.51374 0.15515 -96597.9 82455.4 6.63877e+06 -263010 -6431.96 -29721.7
3 1.7835 -8.40352 0.192769 -139020 105586 6.62621e+06 234642 -2926.15 -23210.2
3 2.40616 -8.2512 1.492 93271.9 -124203 6.61222e+06 -259172 -4866.97 -10794.9
3 -2.22535 -7.50155 0.0487619 152134 -181168 6.67725e+06 168967 -15344.4 -46302.8
3 -3.32936 -6.63424 0.0926856 -247697 224076 6.67427e+06 134.389 1848.75 -67708.5
3 -3.81839 -6.29765 1.4636 176355 -205906 6.66039e+06 57194.7 -17496.5 -51063.5
3 -1.63707 -7.80197 1.3959 -230622 187852 6.69199e+06 -144242 -22600.1 -37334
3 3.79487 -7.89933 1.44335 -261977 235643 6.58109e+06 118325 -8445.08 784.064
3 4.29383 -7.46021 0.0759345 210442 -237691 6.58432e+06 -135154 -19938.3 -20405.6
3 5.2719 -6.48968 0.0595556 -274432 244455 6.53574e+06 -78677.8 -29175.6 4561.3
3 -5.17591 -4.71731 0.0837594 127690 -150845 6.66579e+06 -14085.5 1575.04 -71810.3
3 -4.75461 -5.13612 1.43423 -178504 155084 6.6597e+06 109829 -7307.41 -49710.5
3 5.69531 -5.99483 1.41402 228961 -236882 6.53141e+06 39526.3 -34739.4 15591.4
3 6.40976 -4.79021 1.42052 -150142 157629 6.57808e+06 -178851 -35239 12511
3 6.85228 -4.22895 0.0516703 138544 -142564 6.57691e+06 122049 -38206.9 24716
3 -6.40496 -3.01346 1.39467 97897.2 -131491 6.71205e+06 -31200.7 -22932.4 -77461.9
3 -6.08371 -3.59744 0.0636161 -85910.3 83154.5 6.68759e+06 145795 -13474.5 -68794.4
3 7.16671 -2.84121 0.0637702 -38037.9 50330.9 6.59549e+06 -188252 -16857.4 -5002.3
3 7.25584 -2.21269 1.36901 56653.5 -78665.4 6.6108e+06 126425 9547.63 15041.2
3 -7.03678 -1.01718 0.0066762 124051 -100084 6.68864e+06 -64402.1 -1077.84 -83439.8
3 -6.98739 -1.73271 1.345 -25249.4 3375.58 6.71859e+06 145172 -25322.9 -90733.7
3 7.32057 -0.120435 0.0362835 27626.2 -46643 6.62623e+06 120811 36996.6 -5740.97
3 7.43645 -0.807058 1.37847 27880.1 -54127.8 6.63969e+06 -170105 28418 14900.2
3 1.74629 -8.43574 2.79657 -181748 122237 6.61926e+06 236455 -6675.32 -7535.81
3 0.37479 -8.4848 2.77717 -131205 72060.3 6.62562e+06 -259147 -12331.2 -28115.3
3 -3.30434 -6.59261 2.77973 -260050 234544 6.68222e+06 -6440.27 -32784.8 -35271.9
3 -2.1193 -7.38603 2.73224 149252 -182899 6.68318e+06 153133 -20705.1 -42080.3
3 4.34724 -7.58241 2.75273 234542 -232247 6.56564e+06 -123198 -10998.5 14387.1
3 5.35438 -6.53411 2.77126 -253553 252165 6.54479e+06 -61863.5 -36281 25828.2
3 -5.20655 -4.6857 2.71421 134107 -159138 6.66755e+06 -21471.4 -7170.11 -52659.4
3 -4.85542 -5.25952 4.07074 -174952 169438 6.66767e+06 78100.5 3535.73 -42318.2
3 6.72536 -4.17938 2.76255 136609 -142780 6.58895e+06 127494 -31512.2 10971.2
3 -6.08081 -3.55621 2.73503 -92476.3 76556.4 6.73442e+06 124469 -36876.9 -63520.1
3 7.10679 -2.81944 2.72933 -54793.8 55899.6 6.60612e+06 -191286 -17934.7 12011.5
3 -7.23082 -1.15376 2.7026 86252.4 -140195 6.72118e+06 -88807.4 -22561.5 -92040.9
3 7.49897 -0.177107 2.72268 14948.8 8182.46 6.65571e+06 124442 38383.8 -3396.94
3 -0.335075 -8.45694 4.09699 445.096 -75443.5 6.64379e+06 266880 -2750.27 -30486.7
3 0.320706 -8.48834 5.43043 -111239 65184.9 6.66026e+06 -264493 -26179.8 -16048.8
3 1.71755 -8.47808 5.43034 -173779 115087 6.62873e+06 235346 -32047.2 -5338.76
3 2.42507 -8.41267 4.11122 55372.3 -121565 6.62737e+06 -260202 -18423 1268.41
3 -3.91689 -6.30263 4.08323 198042 -197188 6.66885e+06 29572.2 -19724.6 -35529.3
3 -2.21449 -7.43991 5.3808 155497 -170737 6.69089e+06 144885 12111.6 -34497.1
3 -3.39138 -6.66243 5.36176 -241142 249826 6.65959e+06 -17658.3 8976.03 -23965.9
3 -1.62085 -7.78582 4.1111 -248747 185063 6.67914e+06 -146393 -5458 -36613.5
3 3.7786 -7.9728 4.12387 -312893 235151 6.55824e+06 94334.6 -24695.1 3059.7
3 4.28218 -7.4315 5.4684 207716 -251681 6.5799e+06 -137075 -41103.1 2121.86
3 5.32997 -6.46454 5.43578 -265307 240782 6.54549e+06 -79701 -47853.3 -4073.57
3 -5.2878 -4.75401 5.36598 147094 -97967.4 6.67531e+06 -46723.5 9793.12 -42034.4
3 5.6814 -5.93299 4.09786 232622 -228157 6.5541e+06 55585.4 -36348 17695.2
3 6.36532 -4.70276 4.07787 -153646 161673 6.57922e+06 -151282 -34255.4 18278.2
3 6.65593 -4.09261 5.39771 133353 -128580 6.56437e+06 126352 -15188 18025.9
3 -6.45537 -3.03818 4.06853 103946 -92069.6 6.73369e+06 -64849.8 -16430.3 -53133.9
3 -6.1118 -3.60059 5.39081 -68210.8 133582 6.74512e+06 100606 -212.749 -25984.4
3 7.29249 -2.15743 4.0813 47583.1 -35101 6.60238e+06 137560 -6680.08 23804.1
3 7.10152 -2.7415 5.43041 -56183.9 61804 6.57529e+06 -179968 -7113.4 8448.34
3 -7.07958 -1.78637 4.05294 -27949.7 49741.5 6.76365e+06 121244 -7042.45 -29130.8
3 -7.10515 -1.13814 5.34343 107127 -75161.3 6.78062e+06 -90370 7996.69 -18364.3
3 7.64134 -0.774493 4.08971 17262.3 11007.7 6.67106e+06 -154246 17314.1 26331.8
3 -0.364067 -8.36438 6.72873 57859.1 -60644.7 6.67394e+06 245803 -3654.99 -8977.97
3 1.70018 -8.32411 8.04918 -161982 121452 6.62346e+06 236691 -6797.82 -1839.96
3 0.292203 -8.47172 8.08466 -120628 74500 6.64225e+06 -262666 23580.9 -2590.62
3 2.33189 -8.23848 6.73935 52650.9 -120090 6.616e+06 -258751 -22138.4 -4476.9
3 -3.86934 -6.24512 6.70297 204668 -162267 6.64347e+06 24990.8 10203.1 -20624.1
3 -2.26023 -7.47751 8.02968 182200 -162310 6.68042e+06 152875 1746.8 -14264.5
3 -3.41249 -6.60567 8.00097 -233918 243117 6.64573e+06 -11864.8 603.934 -16327.1
3 -1.68252 -7.77689 6.72027 -201314 195657 6.69708e+06 -159021 2294.89 -22187.4
3 3.69362 -7.78928 6.75947 -304643 248642 6.596e+06 92542 -37295.5 7338.01
3 4.27777 -7.39 8.04713 187504 -237400 6.57901e+06 -153391 -22273.8 11448.9
3 5.38434 -6.43787 8.02204 -272303 208950 6.5448e+06 -93420 -18966.6 -450.71
3 -4.87173 -5.20627 6.72068 -152373 198093 6.68523e+06 69738.7 -6306.39 -19384.2
3 -5.48893 -4.87061 7.98775 162228 -84025.2 6.68066e+06 -43986.8 -11871.3 -30455.5
3 5.74552 -5.95097 6.76474 210855 -253992 6.54359e+06 22898.3 -30602.1 14586.5
3 6.49394 -4.71975 6.73836 -155556 112492 6.55209e+06 -185386 -11935.1 -7654.42
3 -6.44754 -3.06327 6.67656 130484 -50283.4 6.72853e+06 -54836.9 4112.79 -27045.8
3 -6.21127 -3.65927 7.99163 -49808.5 153987 6.72789e+06 103946 -15575.5 -42298.1
3 7.29367 -2.16216 6.7568 81024.5 -89093.6 6.57382e+06 117237 3945.9 21549.3
3 -6.92361 -1.73445 6.72726 -11097.1 94403.2 6.77039e+06 122625 -9902.85 -25344.6
3 -7.09744 -1.14321 8.04905 88577.4 -32624.5 6.74944e+06 -111101 -29764.8 -26954.5
1 -1.25761 -1.14337 8.21319 675741 -780741 357237 533451 -297205 -5331.3
1 -0.738915 -0.242166 7.2429 -893437 986636 169519 56443 412560 -138103
1 1.5601 -0.543089 8.0012 612626 -817946 470148 -424133 324554 -90818.3
3 7.57474 -0.730984 6.77574 54422.9 -42358.6 6.60875e+06 -170250 2724.73 287.401
3 -0.391628 -8.24849 9.39715 -12390.2 -60672.6 6.65511e+06 258073 30016.4 10541.1
3 2.2845 -8.03079 9.37746 83081.2 -112009 6.6265e+06 -251344 -21181.1 5308.13
3 -3.96832 -6.27822 9.39402 197536 -186304 6.65984e+06 31968.9 -12790.8 -32510.4
3 -1.70268 -7.72947 9.35333 -260934 208796 6.65509e+06 -149310 34436.5 -7903.98
3 3.6212 -7.50734 9.3885 -287853 236992 6.60299e+06 97724.4 -15067.6 4927.73
3 -5.0687 -5.35759 9.37156 -146187 193206 6.68814e+06 98726.5 -27161.6 -40759.8
3 5.74599 -5.87104 9.38718 204117 -270194 6.49798e+06 4582.59 2713.92 -1916.98
3 6.80579 -4.14943 8.09486 145794 -177661 6.54096e+06 101521 9519.47 -6213.21
3 6.54257 -4.71755 9.40515 -148383 113215 6.51508e+06 -197171 10724.1 -9021.43
3 -6.60208 -3.12676 9.35724 134981 -60601.6 6.72455e+06 -63517 -37784.4 -47525
3 7.29216 -2.75495 8.14037 -36054.3 13400.8 6.55663e+06 -211964 13258.5 -2111.38
3 7.38723 -2.12851 9.49944 115021 -88832.3 6.59039e+06 110080 42813.1 -34008.7
3 -7.06785 -1.75217 9.38726 -40872 68958.5 6.7267e+06 99681.8 -12563.5 -43999.4
1 -2.91473 -0.868169 10.0151 437829 659347 -972431 -284632 26758.8 131393
1 -2.58143 -0.695607 8.64816 -111665 614088 -50678.2 -775916 392363 335038
1 -0.370894 -1.78377 9.08462 550109 130513 -340949 363373 -777433 236717
1 -0.720039 -1.94259 10.4623 -903135 382023 821328 -80159.7 346473 -237677
1 1.06831 -1.47112 8.95124 95816.3 124554 -20611.3 -432372 863148 189627
1 1.53839 -1.30911 10.2976 -624366 338867 490205 135776 -721872 -192066
3 7.38042 -0.119172 8.16503 49195.8 -29034.5 6.60245e+06 121469 26416.1 -18673.2
3 7.35428 -0.73938 9.47621 62764.6 -51369.4 6.59296e+06 -176370 53173.8 -48809
3 -0.41773 -8.23994 12.0441 2048.35 -37986 6.64105e+06 257965 -27396.8 44833.5
3 0.263712 -8.28734 10.7263 -71832.4 55664.1 6.6722e+06 -257641 17273.6 42524.1
3 1.69797 -8.20109 10.7362 -129987 135741 6.63571e+06 240693 5346.49 37026.6
3 2.26825 -8.00688 12.0951 67154.4 -105923 6.62889e+06 -259608 15092.1 51228.1
3 -2.35341 -7.51311 10.665 108301 -172294 6.6207e+06 190330 -5991.07 31579.7
3 -4.10301 -6.36414 12.0417 171073 -217123 6.6675e+06 83492.7 -13761.7 -10064.2
3 -3.55088 -6.70786 10.6995 -274838 219439 6.6637e+06 24404.9 -12196.8 1585.49
3 -1.75856 -7.74307 11.984 -246608 206475 6.63659e+06 -148077 -23456.6 48589.7
3 3.50574 -7.28765 12.1142 -294178 245978 6.57066e+06 93894.5 5364.76 54127.8
3 4.08223 -7.07059 10.7645 187811 -241312 6.57433e+06 -152515 5011.41 28891.1
3 5.25638 -6.29727 10.7641 -274518 228863 6.51034e+06 -94826.9 9603.51 10995.1
3 -5.62874 -4.94552 10.6717 147698 -143761 6.70175e+06 -19959.5 -38973.6 -66856.2
3 -5.15166 -5.41919 12.0418 -202174 145517 6.71739e+06 128071 -39708.3 -51240.8
3 5.64583 -5.84532 12.0829 199926 -290717 6.4855e+06 -10590.5 29775.1 41034.9
3 6.42333 -4.67858 12.1 -168960 84011.1 6.5403e+06 -211756 43148.6 10865.3
3 6.82159 -4.16877 10.7665 139235 -224413 6.51251e+06 92842.6 36988.5 -12899.6
3 -6.66166 -3.13359 11.9766 126299 -127272 6.75501e+06 -32377 -36189 -71266
3 -6.38485 -3.7406 10.6395 -80852.6 113806 6.74652e+06 139001 -33280.8 -55653.7
3 7.24786 -2.7659 10.8188 -58713.7 -23527.1 6.59408e+06 -216453 62143.3 -41232.8
3 7.3983 -2.10863 12.1841 78122 -139777 6.61157e+06 121487 64431.5 -72230.6
3 -7.25467 -1.16134 10.704 85598.7 -94133 6.73294e+06 -114948 9413.41 -44986
3 -7.22781 -1.78715 12.0247 -1124.14 -5219.54 6.75328e+06 159516 -8937.93 -53978.2
1 -2.00623 -1.55064 10.9546 -88023.3 -291146 700005 537547 396879 -582012
1 -1.95653 -0.725139 12.1885 202163 183010 -46947.1 55356.4 -645159 802748
1 0.484657 -1.66448 11.2426 983771 100053 -890059 -46890.3 264230 325750
1 0.412051 -1.03559 12.5474 1.00744e+06 -223809 -577975 156342 248320 -603073
1 2.56453 -0.42966 10.6495 246448 -371071 374104 -248176 -516917 -691853
3 7.35249 -0.0625567 10.8156 46954.4 -73702.9 6.61673e+06 127145 65452.6 -81890.9
3 7.38448 -0.690782 12.1587 70497.1 -103544 6.64356e+06 -184791 80307.1 -79024.6
3 0.235235 -8.41564 13.3631 -133957 80858.9 6.61793e+06 -254720 -13588.7 52814.8
3 1.65265 -8.29465 13.3717 -190075 135295 6.60883e+06 229768 -9249.72 65118.9
3 -3.55513 -6.71173 13.3396 -282750 221857 6.69821e+06 25142.2 -22485.3 4876.08
3 -2.36488 -7.48425 13.3437 112774 -182964 6.66924e+06 180147 -33050.5 44847
3 3.97283 -6.95984 13.4511 152613 -271044 6.54142e+06 -178661 33982.2 84459.8
3 5.26249 -6.29382 13.4394 -304563 202027 6.51824e+06 -132030 27180.5 57425.3
3 -5.56796 -4.84255 13.3861 144116 -191670 6.74322e+06 -5313.46 -29973.6 -77470.8
3 6.73994 -4.13307 13.4387 153122 -244555 6.57025e+06 89625.3 31494 -18051.5
3 -6.43074 -3.68075 13.3785 -101465 53129.5 6.75648e+06 158819 -48254.3 -76133.9
3 7.17488 -2.78189 13.4733 -36862.1 -45496.4 6.62114e+06 -213175 64139.2 -64634
3 -7.28026 -1.17698 13.4034 129700 -137921 6.7627e+06 -95268.9 9747.46 -75050
1 -0.842713 -0.537348 12.9946 -612243 501290 338705 -386107 -691313 236762
1 1.45725 -0.0528574 12.8749 -995097 533486 590952 268644 313591 283079
3 7.26163 -0.0559583 13.4853 33313.1 -81815.2 6.65727e+06 151693 67505.2 -91663.9
3 -0.482414 -8.32676 14.6646 -40384.3 -20551.3 6.60279e+06 279055 -23053.2 48969.6
3 0.176802 -8.37026 16.0136 -192306 132332 6.58217e+06 -251366 1931.65 41409.1
3 1.53358 -8.08788 16.0255 -243239 179699 6.54138e+06 215384 13956.3 66906.1
3 2.19067 -8.03615 14.7247 13426.8 -86538.4 6.56943e+06 -281151 23953.1 83810.5
3 -4.05248 -6.31421 14.6843 194500 -199989 6.71823e+06 89001 -5797.73 -30802.5
3 -3.59163 -6.78575 16.0083 -218052 256168 6.72513e+06 24457 -25714.6 -27253.1
3 -2.39607 -7.61157 15.996 152923 -116605 6.67381e+06 193913 -7172.88 530.397
3 -1.81851 -7.8696 14.6763 -277174 229839 6.67072e+06 -120292 -24290.5 36703.3
3 3.49825 -7.36502 14.7746 -322751 259725 6.54043e+06 55719.1 33553.4 92728
3 4.10952 -7.16124 16.1242 208728 -189914 6.52486e+06 -177408 41076 79033.1
3 5.23584 -6.29767 16.1732 -233286 251967 6.52404e+06 -111192 48964.2 53908.3
3 -5.10774 -5.32011 14.6947 -167746 166813 6.73749e+06 140073 -22764 -70892.1
3 -5.50544 -4.90063 16.0168 187258 -165376 6.73934e+06 -6623.41 -51808.5 -97567.9
3 5.72076 -5.91197 14.8021 212666 -282402 6.51977e+06 -39790.9 17244.3 47431.8
3 6.49977 -4.67898 14.7744 -146568 84842.3 6.56171e+06 -218950 35908.9 -5490.74
3 6.65878 -4.1313 16.174 198580 -207610 6.55277e+06 77880.5 70931.4 -22580.8
3 -6.66162 -3.16473 14.7192 142568 -122572 6.77743e+06 -54365.3 -36779.3 -87724.1
3 -6.44596 -3.79524 16.0637 -67188.7 98057 6.7544e+06 152943 -55838.5 -104547
2 1.36254 -2.5262 16.1272 -734739 647723 446508 619994 -128137 -282321
3 7.27609 -2.14302 14.7909 123693 -171472 6.64927e+06 130480 72071.5 -90352.7
3 7.11408 -2.77839 16.1241 3033.78 -3048.38 6.65447e+06 -219766 91420.6 -54258.4
3 -7.0752 -1.79671 14.7758 -7015.25 22844.6 6.75825e+06 148611 11843 -76658.4
3 -7.18836 -1.19575 16.1302 129248 -131072 6.73964e+06 -105245 29482.9 -55598.3
2 -0.235776 -0.794577 16.0889 350424 -507696 214660 778568 -372908 163823
2 1.14881 -1.07768 15.8131 195117 -65702 22434.4 -949923 386279 268969
2 2.07658 -0.102874 16.2212 411335 -125823 -101265 -830464 -272627 -532633
3 7.27734 -0.752997 14.7929 74285.1 -128941 6.64959e+06 -164028 70238 -95271.9
3 7.30834 -0.0917681 16.1227 66363.8 -91647.3 6.64688e+06 163092 89683.1 -105910
3 -0.529086 -8.3356 17.3924 24339.9 -13477.8 6.54708e+06 258452 4541.09 -8472.55
3 2.18232 -7.96265 17.3714 63592.9 -67307.1 6.51501e+06 -271176 17790.7 26902.2
3 -4.02826 -6.41074 17.3263 228296 -188742 6.71094e+06 -71.8428 -44493.1 -78734.2
3 -1.85679 -7.89987 17.3384 -205050 229601 6.64569e+06 -140566 -15113.9 -37822.6
3 3.53078 -7.4567 17.4519 -281572 258311 6.48326e+06 75886.3 25656.1 52695.5
3 -5.11493 -5.46269 17.3076 -213874 185431 6.7609e+06 -383.411 -98286.2 -67395.9
2 -0.0698628 -4.17711 17.37 806990 191898 -957399 -119300 -232939 88853.8
2 1.13583 -4.53008 18.1208 -807947 114064 703405 34426.4 862775 -20809.4
2 2.42554 -4.01546 17.7694 -168242 -614348 878558 -622079 467894 183483
3 5.69112 -5.85542 17.5601 220183 -207163 6.55569e+06 33842.9 64338.8 -7842.44
3 6.40851 -4.66724 17.5578 -156473 158162 6.55246e+06 -159324 102088 -20382.7
3 -6.70786 -3.24035 17.3919 98878.3 -66424 6.72197e+06 -101142 -58400.6 -97804.4
2 -2.06792 -2.06174 17.2324 76512.6 611526 -847956 -161490 505469 -459875
2 -2.11562 -3.08387 18.246 -438632 -1.25517e+06 744467 440949 -153036 155029
2 0.053497 -3.10864 16.4543 1.09266e+06 -585506 -41473.7 -154391 -80132.2 562588
2 -0.902462 -2.04574 16.4109 -780183 852696 137192 -433520 594925 -140983
2 2.54716 -3.0001 16.686 -77272.7 852455 -202853 65596.2 -727878 -511276
2 3.52358 -1.94449 17.1865 612795 -140537 -88733.5 186467 298309 847622
3 7.23497 -2.15345 17.5229 38767.6 -74340.2 6.65115e+06 151418 123718 -79689.4
3 -7.08798 -1.84073 17.4165 4493.11 80879.7 6.72496e+06 127105 -7993.68 -53911.2
2 -2.51997 -0.783612 17.7432 234287 -327665 201553 -74876.2 -310979 1.02577e+06
2 3.15991 -0.581909 17.0275 174021 -316117 548154 857143 275609 230016
3 7.27304 -0.738424 17.4635 32196.7 -42759.5 6.64867e+06 -175106 123032 -67940.6
3 -0.438073 -8.26138 20.0218 41780 -33985.8 6.55976e+06 260156 69659.4 -5436.9
3 0.167179 -8.38672 18.6686 -108797 55359.4 6.52884e+06 -264621 23206.6 -4505.95
3 1.57806 -8.11395 18.6692 -160941 94767.3 6.51168e+06 240616 15589.4 25193.5
3 2.19441 -7.94829 20.0158 66212.8 -101906 6.50768e+06 -248866 30192.6 43874.4
3 -4.0635 -6.46509 19.9997 218937 -158983 6.70387e+06 -16915.3 86409 52542
3 -2.49103 -7.68289 18.6045 213171 -255635 6.65248e+06 98802.4 21339.8 -43707.2
3 -3.5704 -6.80767 18.6484 -246183 140751 6.72611e+06 -149374 25445.4 -9850.63
3 -1.83639 -7.8602 20.0074 -197752 159642 6.62181e+06 -170788 84880.3 1661.68
3 3.54355 -7.46203 20.1087 -256469 268519 6.4747e+06 63749.4 20399.3 23792.1
3 4.13833 -7.15122 18.8043 220802 -220465 6.47004e+06 -137542 19906.9 45950.9
3 5.25649 -6.32017 18.845 -266953 195032 6.56009e+06 -15785.5 38421.7 9016.9
3 -5.5865 -5.01086 18.7068 37530.9 -114171 6.79195e+06 -194174 2242.18 -33641
3 -5.04642 -5.48288 20.0531 -187836 182375 6.79959e+06 -36362.8 97787 26888.8
2 -1.13166 -4.12492 18.3181 -1.37694e+06 -165315 864155 206221 -340790 91663.9
2 -0.731068 -4.6629 19.6391 459375 142923 -692095 -48755.4 728388 -193531
2 0.69071 -4.87393 19.5222 -119564 154997 92502.8 -53102.9 -1.07499e+06 53795.3
3 5.65511 -5.82468 20.1986 219808 -237953 6.55035e+06 39593.7 5102.19 27370.1
3 6.36265 -4.62425 20.2141 -183782 167434 6.60325e+06 -146221 -15227.8 -2971.98
3 6.76431 -4.12114 18.8548 48266.6 -110655 6.58977e+06 181007 18716.4 -23389.7
3 -6.58875 -3.24211 20.0685 55767.2 -67706.4 6.72873e+06 -121750 23744 27329.2
3 -6.34645 -3.79863 18.7313 -200471 198736 6.75615e+06 48068.5 -55699.3 -44288.7
2 -2.65715 -2.46008 19.4189 71052 519889 -1.09785e+06 -354463 -120591 335024
2 3.86994 -2.37667 18.5066 -529891 -422325 507778 -573360 -305899 -649146
2 3.23878 -3.58946 18.8689 144049 367907 -858530 450556 -236148 387118
2 2.88405 -3.85566 20.2314 86866.7 564694 -536866 610578 604808 -305467
3 7.17296 -2.77076 18.8544 -175787 117751 6.66148e+06 -168073 50062 -48143.9
3 7.1986 -2.11116 20.2328 31977.3 -78686.2 6.63623e+06 182983 -5335.51 346.613
3 -6.96617 -1.89169 20.1019 -12218.7 82418.3 6.71783e+06 132927 -10949.1 8964.81
3 -7.09693 -1.20417 18.8366 116325 -57800 6.70311e+06 -117955 -17434.8 -28625.1
2 -2.85592 -1.06208 19.1431 -14050.2 -564551 468605 229398 265816 -897968
2 -2.60944 -0.120816 20.1436 -158709 -212530 732781 -610915 -226120 -758643
2 3.95722 -0.010322 19.2513 282184 681863 -869113 -183510 -136314 522920
2 4.17633 -1.43889 19.5023 -211708 -607380 286774 333137 236471 -915224
3 7.32668 -0.0721549 18.7627 -69611.7 -38791.1 6.62769e+06 129798 53435 -35793.6
3 7.34261 -0.669731 20.1862 -16371.1 -27926.6 6.63993e+06 -186577 922.411 -13944.9
3 0.194171 -8.35739 21.3226 -122867 128800 6.59045e+06 -249353 67981.7 1935.99
3 1.58191 -8.12472 21.3137 -177219 170477 6.55308e+06 214034 62282.4 34950.7
3 -2.4069 -7.63876 21.3157 152232 -128647 6.63717e+06 185445 82528.6 -7339.01
3 -3.61658 -6.94877 21.3186 -223541 261343 6.71318e+06 9496.98 91915.6 -8560.34
3 4.07609 -7.1921 21.4736 161825 -200989 6.49231e+06 -193832 42056.7 9403.74
3 5.18419 -6.27101 21.5227 -261305 230493 6.56113e+06 -114446 14385.3 8757.19
3 -5.53723 -5.09843 21.4197 167161 -154377 6.77188e+06 -35134.6 57716.1 63001.9
2 -1.19925 -3.96569 20.786 914265 -700828 119123 63597.5 354703 -578385
2 1.57208 -4.51775 20.5469 351837 -551765 496204 -585301 -632028 -287077
3 6.6126 -4.04708 21.5607 205311 -180839 6.60789e+06 87493.9 10529.7 -6065.81
3 -6.22482 -3.81734 21.4461 -79533.2 130152 6.76812e+06 149020 22288 49531.9
2 -2.26974 -2.92751 20.6862 -413030 831450 -273023 -506999 -736509 -28605.9
2 -0.709538 -2.30212 22.3865 483321 -171858 -92901 -893331 -253120 -552978
2 -0.220641 -3.53747 21.7539 -623926 660434 381181 479953 -280188 427581
2 1.09518 -3.82388 21.7059 -458182 903460 133154 -56620.9 600628 440541
2 2.08815 -2.86563 22.1869 851972 -298477 -100790 421806 -140271 -737512
2 3.14517 -2.83252 21.2571 -269537 -46831.5 627460 -762733 6301.56 502427
3 7.06343 -2.68532 21.5702 -10777.1 28626.1 6.65201e+06 -206378 7833.3 16783.3
3 -6.92529 -1.31452 21.4959 144329 -129639 6.71849e+06 -125361 -34804.3 55179.3
2 -2.16319 -0.508362 21.5352 642667 -217955 86315.3 81488.6 401363 743491
2 -1.87324 -1.91503 21.716 236436 -378750 554081 765467 297167 93047.6
2 2.3311 -0.461618 22.3824 -775912 884215 247315 -327172 515887 -200383
2 3.86748 -1.708 20.9073 168346 -242894 83845.8 6474.54 -233642 903527
2 3.46696 -0.465337 21.5364 196521 764669 -598665 -15142 491624 -676337
3 7.4576 -0.0169862 21.4798 70992.6 -98763.3 6.62762e+06 172235 12289.6 34697.3
3 -0.44876 -8.23895 22.7164 -31838.3 6727.1 6.61562e+06 280691 88421.2 -17387.2
3 -1.76822 -7.75575 22.6857 -264237 231616 6.66667e+06 -121425 70748.9 -32606.6
3 0.187429 -8.3413 24.0773 -153754 83964.5 6.62579e+06 -261163 63873 -24584.6
3 1.5928 -8.27488 24.0706 -219730 131387 6.6222e+06 217522 72876 -1869.91
3 2.23139 -8.05357 22.7054 35937.7 -75023.3 6.60316e+06 -273201 67139.3 3602.61
3 -4.09179 -6.60075 22.7353 175437 -176508 6.72516e+06 110223 47840.5 -8586.56
3 -2.37924 -7.79232 24.0624 109740 -185457 6.67863e+06 203123 76973.9 -36720.7
3 -3.65416 -7.07381 24.1061 -273542 212968 6.72665e+06 29260.7 61081 -19492.3
3 3.54093 -7.57307 22.7725 -291655 251799 6.57066e+06 57462.1 85946.5 1934.91
3 4.04514 -7.26267 24.1145 179885 -228152 6.616e+06 -153750 44410.6 -24260.8
3 5.0651 -6.26238 24.1738 -264014 230760 6.63977e+06 -96586.2 66049.4 -10781.5
3 -5.44862 -5.09543 24.1376 151750 -216090 6.758e+06 21424.8 5963.23 60307
3 -5.13612 -5.6792 22.7329 -172623 156519 6.77456e+06 135917 32441.1 31519.8
3 5.48532 -5.7493 22.9043 230619 -256714 6.59225e+06 -30536 34555.9 -35774.8
3 6.20748 -4.53054 22.8999 -127520 108794 6.63422e+06 -208942 41311.8 -8420.1
3 6.43491 -3.89822 24.2232 165085 -261299 6.63844e+06 75094.9 49741.9 16957.6
3 -6.2428 -3.92259 24.1351 -90819.6 52448.4 6.80042e+06 192089 3778.67 63489.2
3 -6.39974 -3.27206 22.8435 159309 -167504 6.77651e+06 -54203.5 -7527.25 65035.2
3 7.00115 -2.61352 24.2428 -25842.2 -56589.3 6.64475e+06 -237394 27475.3 40436.7
3 7.23598 -2.05676 22.9028 134216 -181153 6.64422e+06 142904 28196.5 57708.5
3 -6.87128 -1.91745 22.8162 3386.38 -20966 6.71265e+06 160005 -38362.4 59777.4
3 -6.81729 -1.26249 24.1373 120983 -166728 6.74966e+06 -117359 -29228.5 47534.4
2 1.63201 -1.67569 22.7966 375932 -419827 339778 852347 -371346 82732.4
2 0.201552 -1.3888 22.9306 155404 -216510 -146487 -947081 383033 225380
3 7.45069 -0.638009 22.8826 86840.8 -136635 6.67091e+06 -178965 29175.6 54980.9
3 7.58809 -0.0145264 24.1789 30397.4 -114511 6.67281e+06 170270 21335.8 56911.8
3 -1.75358 -7.97383 25.4403 -284058 203621 6.68117e+06 -131592 63845.8 -24057.2
3 -0.402752 -8.33981 25.4329 -42991.6 -39175.8 6.63897e+06 287635 74731.6 -13058.8
3 2.22362 -8.16175 25.3878 35351.3 -107381 6.65433e+06 -259799 60000.5 -6916.13
3 -4.02966 -6.59984 25.4565 121022 -227962 6.72028e+06 100449 43319.8 5671.01
3 3.5301 -7.64324 25.3926 -294846 228622 6.64664e+06 83405.9 55421.2 -3909.07
3 -5.15076 -5.67636 25.5168 -231031 130897 6.72026e+06 154728 28726.8 38079.9
3 5.36142 -5.71294 25.5025 215808 -277784 6.6437e+06 -27071.7 68607.1 -4624.01
3 6.10562 -4.47441 25.5337 -170640 94461.1 6.66136e+06 -204192 56789 37610
3 -6.47695 -3.33523 25.4948 132573 -180117 6.77273e+06 -50185 8512.91 94534.2
3 7.21316 -2.05451 25.5494 90990.6 -160781 6.65693e+06 127708 15880.8 40172.5
3 -6.74598 -1.90909 25.4523 1395.39 -39841.2 6.74183e+06 177882 -23505 48909.8
1 -0.848939 -0.0202493 26.1571 715596 119680 -509010 -450541 124700 620727
3 7.51884 -0.66415 25.5477 65924.4 -121609 6.67063e+06 -194013 11863.3 61809
3 -0.434432 -8.48812 28.13 -52402.7 -30997.8 6.64698e+06 275774 49857.9 11406.3
3 -1.81078 -8.07584 28.1531 -301861 207281 6.67092e+06 -129371 18087 7095.9
3 0.172204 -8.46817 26.7901 -154360 72875.4 6.66868e+06 -265792 59920.6 671.783
3 1.59057 -8.3802 26.7696 -210725 131712 6.66948e+06 217334 63838.3 -391.595
3 2.20881 -8.21111 28.0348 19454.3 -97721.3 6.65744e+06 -259919 81532.6 -669.689
3 -4.00726 -6.59474 28.151 126531 -205191 6.74191e+06 96787.1 52944.5 -13450.3
3 -2.36083 -7.7664 26.7944 70062.7 -200435 6.64494e+06 227285 43612.5 -6992.93
3 -3.61561 -7.08308 26.8031 -314243 202294 6.71535e+06 55015.7 40595.3 10663.7
3 3.53591 -7.75161 28.0525 -304813 223719 6.66448e+06 71915.2 72197.4 20404.7
3 4.07056 -7.32032 26.7591 148529 -237575 6.65314e+06 -171156 59323.1 17661.8
3 4.98431 -6.23665 26.8112 -298698 218257 6.64782e+06 -105264 68101.1 6420.15
3 -5.38785 -5.07568 26.8001 151156 -184870 6.7165e+06 29946.5 24749.3 29951.3
3 -4.94025 -5.50097 28.1273 -208993 145898 6.67972e+06 140455 22114.2 -3021.23
3 5.37782 -5.72652 28.1281 226898 -286270 6.65754e+06 -15803.2 55913 18785.2
3 6.09829 -4.51121 28.2294 -163219 79947 6.64076e+06 -211675 64803.2 21647.3
3 6.4093 -3.9234 26.8931 162002 -215150 6.64471e+06 84281.7 47441.6 33084.9
3 -6.35857 -3.32004 28.1785 143742 -116257 6.72005e+06 -68297.4 12965 24907.8