LAMMPS (23 Jun 2022 - Update 1)
OMP_NUM_THREADS environment is not set. Defaulting to 1 thread. (../comm.cpp:98)
  using 1 OpenMP thread(s) per MPI task
Reading data file ...
  orthogonal box = (-25 -25 -0.606218) to (25 25 110.93785)
  1 by 2 by 4 MPI processor grid
  reading atoms ...
  2928 atoms
  reading velocities ...
  2928 velocities
  read_data CPU = 0.015 seconds
Reading airebo potential file CH.airebo with DATE: 2011-10-25
Reading airebo potential file CH.airebo with DATE: 2011-10-25
Reading airebo potential file CH.airebo with DATE: 2011-10-25
Neighbor list info ...
  update every 1 steps, delay 0 steps, check yes
  max neighbors/atom: 2000, page size: 100000
  master list distance cutoff = 13.2
  ghost atom cutoff = 13.2
  binsize = 6.6, bins = 8 8 17
  6 neighbor lists, perpetual/occasional/extra = 6 0 0
  (1) pair airebo, perpetual, skip from (5)
      attributes: full, newton on, ghost
      pair build: skip/ghost
      stencil: none
      bin: none
  (2) pair airebo, perpetual, skip from (5)
      attributes: full, newton on, ghost
      pair build: skip/ghost
      stencil: none
      bin: none
  (3) pair airebo, perpetual, skip from (5)
      attributes: full, newton on, ghost
      pair build: skip/ghost
      stencil: none
      bin: none
  (4) pair lj/cut, perpetual, skip from (6)
      attributes: half, newton on
      pair build: skip
      stencil: none
      bin: none
  (5) neighbor class addition, perpetual
      attributes: full, newton on, ghost
      pair build: full/bin/ghost
      stencil: full/ghost/bin/3d
      bin: standard
  (6) neighbor class addition, perpetual
      attributes: half, newton on
      pair build: half/bin/atomonly/newton
      stencil: half/bin/3d
      bin: standard
Setting up sd style minimization ...
  Unit style    : metal
  Current step  : 0
Per MPI rank memory allocation (min/avg/max) = 10.25 | 10.25 | 10.25 Mbytes
   Step          Temp          E_pair         E_mol          TotEng         Press     
         0   0             -20344.756      0             -20344.756      27546.587    
        16   0             -21241.397      0             -21241.397      313.77327    
Loop time of 0.17809 on 8 procs for 16 steps with 2928 atoms

98.8% CPU use with 8 MPI tasks x 1 OpenMP threads

Minimization stats:
  Stopping criterion = energy tolerance
  Energy initial, next-to-last, final = 
     -20344.7559264538  -21240.4212891911  -21241.3968525428
  Force two-norm initial, final = 721.12526 10.912003
  Force max component initial, final = 114.90068 1.6104143
  Final line search alpha, max atom move = 0.031085587 0.050060673
  Iterations, force evaluations = 16 28

MPI task timing breakdown:
Section |  min time  |  avg time  |  max time  |%varavg| %total
---------------------------------------------------------------
Pair    | 0.15852    | 0.16938    | 0.17489    |   1.5 | 95.11
Neigh   | 0          | 0          | 0          |   0.0 |  0.00
Comm    | 0.0020838  | 0.0073234  | 0.017911   |   7.3 |  4.11
Output  | 0          | 0          | 0          |   0.0 |  0.00
Modify  | 0          | 0          | 0          |   0.0 |  0.00
Other   |            | 0.001384   |            |       |  0.78

Nlocal:            366 ave         378 max         354 min
Histogram: 4 0 0 0 0 0 0 0 0 4
Nghost:           1062 ave        1074 max        1050 min
Histogram: 4 0 0 0 0 0 0 0 0 4
Neighs:              0 ave           0 max           0 min
Histogram: 8 0 0 0 0 0 0 0 0 0

Total # of neighbors = 0
Ave neighs/atom = 0
Neighbor list builds = 0
Dangerous builds = 0
Setting up Verlet run ...
  Unit style    : metal
  Current step  : 16
  Time step     : 0.001
Per MPI rank memory allocation (min/avg/max) = 10.88 | 10.88 | 10.88 Mbytes
   Step          Temp          E_pair         E_mol          TotEng         Press          Volume    
        16   300           -21241.397      0             -21127.894      748.5249       278860.18    
Loop time of 2.27731e-05 on 8 procs for 0 steps with 2928 atoms

90.6% CPU use with 8 MPI tasks x 1 OpenMP threads

MPI task timing breakdown:
Section |  min time  |  avg time  |  max time  |%varavg| %total
---------------------------------------------------------------
Pair    | 0          | 0          | 0          |   0.0 |  0.00
Neigh   | 0          | 0          | 0          |   0.0 |  0.00
Comm    | 0          | 0          | 0          |   0.0 |  0.00
Output  | 0          | 0          | 0          |   0.0 |  0.00
Modify  | 0          | 0          | 0          |   0.0 |  0.00
Other   |            | 2.277e-05  |            |       |100.00

Nlocal:            366 ave         369 max         363 min
Histogram: 4 0 0 0 0 0 0 0 0 4
Nghost:           1062 ave        1065 max        1059 min
Histogram: 4 0 0 0 0 0 0 0 0 4
Neighs:              0 ave           0 max           0 min
Histogram: 8 0 0 0 0 0 0 0 0 0

Total # of neighbors = 0
Ave neighs/atom = 0
Neighbor list builds = 0
Dangerous builds = 0
Setting up Verlet run ...
  Unit style    : metal
  Current step  : 0
  Time step     : 0.001
Per MPI rank memory allocation (min/avg/max) = 13.65 | 13.65 | 13.65 Mbytes
   Step         PotEng         KinEng         TotEng           Lx             Ly             Lz      
         0  -21241.397      113.50333     -21127.894      50             50             111.54407    
       100  -21222.268      104.45399     -21117.814      50.006397      49.987601      111.59984    
       200  -21230.288      115.1298      -21115.159      50.006611      49.962275      111.65562    
       300  -21217.05       102.73378     -21114.316      50.029695      49.950178      111.71139    
       400  -21221.797      115.53453     -21106.263      50.036504      49.926234      111.76716    
       500  -21215.235      116.08355     -21099.151      50.058181      49.915691      111.82293    
       600  -21217.862      124.16072     -21093.701      50.062975      49.908339      111.8787     
       700  -21210.9        120.08361     -21090.816      50.062807      49.919508      111.93448    
       800  -21204.757      115.55485     -21089.202      50.060221      49.942901      111.99025    
       900  -21196.591      109.84753     -21086.743      50.033933      49.958249      112.04602    
      1000  -21204.579      122.47361     -21082.105      50.018244      49.97692       112.10179    
      1100  -21210.518      119.69273     -21090.825      49.995762      49.988232      112.15756    
      1200  -21198.339      104.5591      -21093.78       49.985098      50.003356      112.21334    
      1300  -21191.648      105.45315     -21086.195      49.967705      50.010151      112.26911    
      1400  -21194.391      116.29168     -21078.099      49.960288      50.025317      112.32488    
      1500  -21192.75       115.46267     -21077.288      49.951551      50.037728      112.38065    
      1600  -21190.057      110.59689     -21079.46       49.940989      50.043378      112.43642    
      1700  -21185.428      109.77461     -21075.654      49.941332      50.051924      112.4922     
      1800  -21188.142      117.53102     -21070.611      49.939164      50.049462      112.54797    
      1900  -21186.3        115.34631     -21070.954      49.942276      50.047269      112.60374    
      2000  -21189.044      115.0421      -21074.002      49.94582       50.043394      112.65951    
      2100  -21191.514      113.87677     -21077.637      49.952062      50.040458      112.71528    
      2200  -21190.333      110.47064     -21079.862      49.956814      50.036224      112.77106    
      2300  -21187.551      108.11669     -21079.434      49.958143      50.031115      112.82683    
      2400  -21190.014      116.00147     -21074.012      49.962034      50.030021      112.8826     
      2500  -21188.087      115.56612     -21072.52       49.963298      50.027365      112.93837    
      2600  -21190.689      115.17182     -21075.517      49.964344      50.024623      112.99414    
      2700  -21186.369      109.44741     -21076.921      49.966437      50.022006      113.04992    
      2800  -21187.942      114.23667     -21073.705      49.965992      50.020189      113.10569    
      2900  -21183.331      112.52385     -21070.808      49.965093      50.019173      113.16146    
      3000  -21182.597      114.73043     -21067.867      49.964703      50.019591      113.21723    
      3100  -21180.743      113.85076     -21066.892      49.964897      50.021364      113.27301    
      3200  -21181.778      115.31992     -21066.459      49.962458      50.021673      113.32878    
      3300  -21179.32       113.12559     -21066.194      49.961176      50.023706      113.38455    
      3400  -21180.946      113.69551     -21067.251      49.961926      50.024746      113.44032    
      3500  -21180.12       113.04724     -21067.073      49.962043      50.022104      113.49609    
      3600  -21177.448      111.08701     -21066.361      49.963619      50.018373      113.55187    
      3700  -21179.444      114.1776      -21065.266      49.964082      50.013627      113.60764    
      3800  -21175.893      114.39839     -21061.494      49.965989      50.011121      113.66341    
      3900  -21175.694      116.74416     -21058.95       49.965966      50.009375      113.71918    
      4000  -21173.631      113.95029     -21059.681      49.964191      50.00799       113.77495    
      4100  -21175.339      113.50165     -21061.837      49.965326      50.009648      113.83073    
      4200  -21173.638      110.75254     -21062.885      49.962304      50.008869      113.8865     
      4300  -21172.516      112.05699     -21060.459      49.960727      50.01093       113.94227    
      4400  -21170.225      113.90245     -21056.323      49.956561      50.014864      113.99804    
      4500  -21168.502      114.68279     -21053.819      49.950358      50.018681      114.05381    
      4600  -21167.589      112.88692     -21054.702      49.945067      50.024424      114.10959    
      4700  -21167.722      112.1631      -21055.559      49.938987      50.028573      114.16536    
      4800  -21162.752      110.38621     -21052.366      49.934993      50.033322      114.22113    
      4900  -21162.101      113.49003     -21048.611      49.930204      50.035427      114.2769     
      5000  -21159.929      112.85493     -21047.074      49.926578      50.036823      114.33267    
      5100  -21156.296      111.92457     -21044.371      49.924265      50.037575      114.38845    
      5200  -21155.427      115.67986     -21039.747      49.921716      50.035896      114.44422    
      5300  -21151.502      115.06013     -21036.441      49.921397      50.035674      114.49999    
      5400  -21155.549      116.48895     -21039.06       49.921182      50.033349      114.55576    
      5500  -21152.615      113.02641     -21039.589      49.92198       50.029899      114.61153    
      5600  -21149.96       111.02659     -21038.934      49.921897      50.026502      114.66731    
      5700  -21149.403      111.50539     -21037.898      49.922015      50.023735      114.72308    
      5800  -21149.793      113.43732     -21036.356      49.920382      50.022875      114.77885    
      5900  -21147.85       113.75079     -21034.1        49.91677       50.023055      114.83462    
      6000  -21147.455      116.08465     -21031.37       49.914478      50.024388      114.89039    
      6100  -21147.07       114.98815     -21032.082      49.911158      50.02446       114.94617    
      6200  -21144.329      110.91328     -21033.415      49.90872       50.02412       115.00194    
      6300  -21143.417      112.60078     -21030.816      49.905939      50.023233      115.05771    
      6400  -21142.835      117.58417     -21025.251      49.902863      50.023107      115.11348    
      6500  -21138.748      116.1407      -21022.607      49.898847      50.022638      115.16925    
      6600  -21137.105      114.25705     -21022.848      49.896461      50.023341      115.22503    
      6700  -21136.615      112.78025     -21023.835      49.893133      50.023113      115.2808     
      6800  -21135.396      112.06631     -21023.329      49.890221      50.02183       115.33657    
      6900  -21133.18       111.51347     -21021.667      49.889653      50.021946      115.39234    
      7000  -21130.901      115.18515     -21015.716      49.887899      50.019933      115.44811    
      7100  -21123.463      111.99366     -21011.47       49.887756      50.019256      115.50389    
      7200  -21126.155      115.48064     -21010.675      49.885285      50.017971      115.55966    
      7300  -21123.735      112.44848     -21011.287      49.880465      50.01629       115.61543    
      7400  -21121.656      112.88693     -21008.769      49.878161      50.017696      115.6712     
      7500  -21123.417      116.68993     -21006.727      49.873517      50.017768      115.72697    
      7600  -21119.831      113.27669     -21006.554      49.869763      50.016604      115.78275    
      7700  -21119.381      112.6265      -21006.754      49.867213      50.01635       115.83852    
      7800  -21116.008      110.56239     -21005.445      49.862649      50.014597      115.89429    
      7900  -21115.782      113.52989     -21002.252      49.8601        50.01494       115.95006    
      8000  -21110.656      112.14417     -20998.512      49.855439      50.013313      116.00583    
      8100  -21109.753      114.41399     -20995.339      49.85331       50.013017      116.06161    
      8200  -21108.165      113.0577      -20995.107      49.851112      50.01153       116.11738    
      8300  -21107.45       112.50164     -20994.949      49.846997      50.008171      116.17315    
      8400  -21100.93       109.48351     -20991.446      49.845524      50.006899      116.22892    
      8500  -21101.887      115.9255      -20985.961      49.840819      50.002704      116.2847     
      8600  -21096.817      114.14047     -20982.676      49.83941       50.002366      116.34047    
      8700  -21096.294      115.30964     -20980.984      49.83549       50.001412      116.39624    
      8800  -21095.065      111.17157     -20983.893      49.831017      50.000661      116.45201    
      8900  -21090.863      109.70279     -20981.16       49.827712      50.000432      116.50778    
      9000  -21088.439      112.7675      -20975.671      49.822293      49.997648      116.56356    
      9100  -21086.7        113.79847     -20972.901      49.819808      49.996822      116.61933    
      9200  -21089.737      116.69197     -20973.045      49.815771      49.994252      116.6751     
      9300  -21083.949      111.30789     -20972.642      49.813019      49.992427      116.73087    
      9400  -21080.4        111.61124     -20968.789      49.810056      49.990659      116.78664    
      9500  -21074.466      113.33597     -20961.13       49.806487      49.987278      116.84242    
      9600  -21074.413      116.29415     -20958.118      49.803392      49.984281      116.89819    
      9700  -21073.252      113.83448     -20959.417      49.800952      49.980893      116.95396    
      9800  -21073.681      114.53424     -20959.147      49.7983        49.976927      117.00973    
      9900  -21070.361      113.49686     -20956.864      49.795354      49.973275      117.0655     
     10000  -21067.813      112.94849     -20954.865      49.791377      49.969879      117.12128    
     10100  -21065.129      112.82791     -20952.301      49.786369      49.967496      117.17705    
     10200  -21060.227      113.68435     -20946.543      49.782303      49.966145      117.23282    
     10300  -21056.234      114.58375     -20941.65       49.777153      49.963559      117.28859    
     10400  -21053.625      113.54328     -20940.082      49.772777      49.961152      117.34436    
     10500  -21052.497      112.44893     -20940.048      49.769563      49.959182      117.40014    
     10600  -21052.982      112.05685     -20940.925      49.764553      49.955458      117.45591    
     10700  -21051.41       111.2696      -20940.14       49.75986       49.952037      117.51168    
     10800  -21044.517      111.84348     -20932.673      49.754688      49.948743      117.56745    
     10900  -21039.923      112.35451     -20927.568      49.749417      49.945781      117.62322    
     11000  -21040.326      115.36066     -20924.965      49.743905      49.942642      117.679      
     11100  -21039.55       114.38755     -20925.163      49.738983      49.940786      117.73477    
     11200  -21034.454      109.88581     -20924.568      49.733314      49.938694      117.79054    
     11300  -21031.898      111.66589     -20920.232      49.726113      49.936081      117.84631    
     11400  -21027.567      113.13594     -20914.431      49.719926      49.934236      117.90208    
     11500  -21026.781      115.63658     -20911.145      49.713504      49.93163       117.95786    
     11600  -21022.538      113.2779      -20909.26       49.707171      49.929601      118.01363    
     11700  -21018.706      110.69556     -20908.011      49.70079       49.926724      118.0694     
     11800  -21016.047      111.85345     -20904.194      49.694393      49.923492      118.12517    
     11900  -21013.206      115.8461      -20897.36       49.687299      49.92017       118.18094    
     12000  -21008.259      112.74435     -20895.515      49.679999      49.916649      118.23672    
     12100  -21007.255      111.77693     -20895.478      49.673476      49.912856      118.29249    
     12200  -21006.489      113.17118     -20893.318      49.667934      49.908579      118.34826    
     12300  -21004.689      113.63368     -20891.055      49.661848      49.9035        118.40403    
     12400  -21001.461      113.6216      -20887.839      49.655552      49.898674      118.4598     
     12500  -20994.625      114.45251     -20880.172      49.649382      49.893818      118.51558    
     12600  -20991.212      115.88122     -20875.33       49.64276       49.888528      118.57135    
     12700  -20991.735      116.23491     -20875.5        49.635601      49.884322      118.62712    
     12800  -20987.022      112.16297     -20874.859      49.626674      49.879413      118.68289    
     12900  -20984.099      111.67401     -20872.425      49.619046      49.87588       118.73866    
     13000  -20981.509      114.45833     -20867.05       49.60947       49.870423      118.79444    
     13100  -20978.192      117.11022     -20861.082      49.600077      49.865546      118.85021    
     13200  -20972.23       113.25864     -20858.971      49.591482      49.860665      118.90598    
     13300  -20974.462      113.91377     -20860.548      49.582229      49.855191      118.96175    
     13400  -20972.933      114.76453     -20858.168      49.574422      49.851635      119.01752    
     13500  -20965.843      113.55998     -20852.283      49.563505      49.846131      119.0733     
     13600  -20958.951      112.42182     -20846.529      49.554384      49.842711      119.12907    
     13700  -20956.348      113.53165     -20842.817      49.543765      49.837628      119.18484    
     13800  -20956.004      115.24833     -20840.756      49.532032      49.830639      119.24061    
     13900  -20951.668      112.70763     -20838.96       49.52263       49.82516       119.29639    
     14000  -20949.5        113.40627     -20836.094      49.511061      49.81751       119.35216    
     14100  -20944.824      110.90918     -20833.915      49.501731      49.81154       119.40793    
     14200  -20943.849      112.65903     -20831.19       49.490356      49.80467       119.4637     
     14300  -20938.161      110.40648     -20827.754      49.478583      49.798914      119.51947    
     14400  -20938.427      116.22981     -20822.197      49.466049      49.794139      119.57525    
     14500  -20932.529      114.83932     -20817.69       49.451325      49.789588      119.63102    
     14600  -20932.364      114.7543      -20817.61       49.43825       49.786127      119.68679    
     14700  -20927.84       111.16552     -20816.675      49.423827      49.779791      119.74256    
     14800  -20921.954      110.35336     -20811.601      49.41097       49.772956      119.79833    
     14900  -20920.151      114.84363     -20805.307      49.397831      49.76522       119.85411    
     15000  -20914.807      113.61625     -20801.19       49.382892      49.757042      119.90988    
     15100  -20911.214      113.46186     -20797.752      49.367549      49.749208      119.96565    
     15200  -20907.689      110.69762     -20796.991      49.351652      49.742148      120.02142    
     15300  -20909.618      112.87059     -20796.747      49.335166      49.73408       120.07719    
     15400  -20902.606      110.35711     -20792.249      49.319561      49.726991      120.13297    
     15500  -20897.441      112.47455     -20784.966      49.302618      49.718844      120.18874    
     15600  -20895.6        115.01759     -20780.582      49.286626      49.711723      120.24451    
     15700  -20891.252      112.84312     -20778.409      49.270053      49.704634      120.30028    
     15800  -20888.138      112.68416     -20775.454      49.25223       49.696321      120.35605    
     15900  -20884.357      112.01239     -20772.345      49.235883      49.689224      120.41183    
     16000  -20881.944      113.01747     -20768.927      49.21707       49.679001      120.4676     
     16100  -20876.854      113.11473     -20763.739      49.199335      49.670465      120.52337    
     16200  -20871.895      114.91545     -20756.98       49.179082      49.660463      120.57914    
     16300  -20866.169      113.87319     -20752.296      49.15796       49.65061       120.63491    
     16400  -20865.937      114.40101     -20751.536      49.137762      49.642963      120.69069    
     16500  -20862.543      111.04469     -20751.499      49.115379      49.632704      120.74646    
     16600  -20858.409      111.69756     -20746.712      49.095269      49.624204      120.80223    
     16700  -20855.326      114.75502     -20740.571      49.073027      49.613727      120.858      
     16800  -20849.551      113.91609     -20735.635      49.051425      49.604337      120.91377    
     16900  -20845.936      114.87968     -20731.057      49.029599      49.595267      120.96955    
     17000  -20842.109      114.08804     -20728.021      49.005822      49.584664      121.02532    
     17100  -20839.095      112.5845      -20726.51       48.983307      49.575358      121.08109    
     17200  -20836.11       113.70609     -20722.404      48.959999      49.563565      121.13686    
     17300  -20831.27       115.18279     -20716.087      48.937507      49.551188      121.19263    
     17400  -20824.304      114.13505     -20710.169      48.914964      49.538503      121.24841    
     17500  -20821.347      114.85023     -20706.497      48.891601      49.52624       121.30418    
     17600  -20819.163      111.74963     -20707.413      48.868217      49.514728      121.35995    
     17700  -20817.632      113.12063     -20704.511      48.843665      49.502369      121.41572    
     17800  -20811.851      113.05998     -20698.791      48.820012      49.490819      121.47149    
     17900  -20804.773      113.20893     -20691.564      48.796066      49.478058      121.52727    
     18000  -20801.836      115.12535     -20686.711      48.771993      49.464561      121.58304    
     18100  -20798.175      113.97603     -20684.199      48.748757      49.451835      121.63881    
     18200  -20794.45       113.63766     -20680.812      48.723507      49.437655      121.69458    
     18300  -20791.683      115.06399     -20676.619      48.698843      49.425789      121.75035    
     18400  -20788.105      114.30324     -20673.802      48.671523      49.413023      121.80613    
     18500  -20784.074      110.03914     -20674.035      48.644289      49.401753      121.8619     
     18600  -20782.825      112.67725     -20670.147      48.6173        49.39005       121.91767    
     18700  -20776.176      113.04991     -20663.127      48.590181      49.37589       121.97344    
     18800  -20769.586      112.18886     -20657.397      48.565059      49.363984      122.02921    
     18900  -20765.444      113.62507     -20651.819      48.538592      49.349239      122.08499    
     19000  -20761.07       114.06402     -20647.006      48.514324      49.335454      122.14076    
     19100  -20757.834      114.00358     -20643.831      48.489358      49.319959      122.19653    
     19200  -20755.481      112.44933     -20643.032      48.465311      49.305613      122.2523     
     19300  -20752.956      113.16147     -20639.795      48.441828      49.291569      122.30807    
     19400  -20745.13       112.34211     -20632.788      48.416732      49.276346      122.36385    
     19500  -20739.928      114.84205     -20625.086      48.3928        49.263593      122.41962    
     19600  -20734.326      113.98516     -20620.341      48.366817      49.249011      122.47539    
     19700  -20731.205      113.80978     -20617.395      48.341643      49.236382      122.53116    
     19800  -20727.653      111.95679     -20615.696      48.316223      49.223104      122.58694    
     19900  -20723.412      110.68343     -20612.728      48.28993       49.208368      122.64271    
     20000  -20720.52       112.89318     -20607.626      48.266334      49.197005      122.69848    
     20100  -20714.323      112.68902     -20601.634      48.240554      49.182496      122.75425    
     20200  -20708.954      113.01081     -20595.943      48.216285      49.16995       122.81002    
     20300  -20706.054      115.14565     -20590.909      48.192056      49.157631      122.8658     
     20400  -20699.976      114.44928     -20585.527      48.166326      49.144331      122.92157    
     20500  -20696.221      113.27348     -20582.947      48.143117      49.134914      122.97734    
     20600  -20694.496      112.72289     -20581.773      48.118107      49.121675      123.03311    
     20700  -20691.368      113.83558     -20577.532      48.095315      49.109788      123.08888    
     20800  -20684.701      114.22066     -20570.48       48.073185      49.097671      123.14466    
     20900  -20678.144      115.58396     -20562.56       48.050354      49.083293      123.20043    
     21000  -20672.775      114.55817     -20558.217      48.030014      49.072729      123.2562     
     21100  -20669.078      114.12236     -20554.956      48.007577      49.059356      123.31197    
     21200  -20664.752      112.80831     -20551.944      47.987275      49.048294      123.36774    
     21300  -20662.246      113.63458     -20548.612      47.966944      49.036058      123.42352    
     21400  -20656.904      111.32776     -20545.577      47.9458        49.021942      123.47929    
     21500  -20653.838      109.08741     -20544.75       47.927152      49.011117      123.53506    
     21600  -20650.241      111.12443     -20539.117      47.906367      48.997556      123.59083    
     21700  -20645.203      114.71607     -20530.487      47.887403      48.987572      123.6466     
     21800  -20638.509      112.8895      -20525.619      47.867725      48.97697       123.70238    
     21900  -20633.266      111.89856     -20521.367      47.847094      48.965513      123.75815    
     22000  -20631.311      115.32645     -20515.984      47.82875       48.956835      123.81392    
     22100  -20621.196      112.92814     -20508.268      47.808729      48.944667      123.86969    
     22200  -20618.465      116.73907     -20501.726      47.790911      48.935749      123.92546    
     22300  -20613.606      113.85383     -20499.752      47.773643      48.926951      123.98124    
     22400  -20614.536      115.37572     -20499.16       47.754662      48.91541       124.03701    
     22500  -20607.339      113.02539     -20494.314      47.738956      48.908059      124.09278    
     22600  -20602.079      114.5369      -20487.542      47.72101       48.896103      124.14855    
     22700  -20593.992      113.12808     -20480.864      47.705114      48.88599       124.20432    
     22800  -20591.107      113.99264     -20477.114      47.689629      48.876493      124.2601     
     22900  -20588.517      110.77882     -20477.739      47.672819      48.865363      124.31587    
     23000  -20585.22       111.86538     -20473.355      47.658959      48.858709      124.37164    
     23100  -20579.221      113.62087     -20465.6        47.642374      48.847442      124.42741    
     23200  -20570.62       112.54579     -20458.074      47.628322      48.83961       124.48318    
     23300  -20567.404      114.83529     -20452.569      47.613849      48.830418      124.53896    
     23400  -20562.361      114.16719     -20448.193      47.598867      48.819678      124.59473    
     23500  -20559.378      113.65651     -20445.722      47.586708      48.81215       124.6505     
     23600  -20555.275      110.51039     -20444.765      47.572045      48.800538      124.70627    
     23700  -20550.29       111.63135     -20438.659      47.56046       48.793495      124.76204    
     23800  -20543.658      113.5635      -20430.094      47.546525      48.783874      124.81782    
     23900  -20540.298      115.42687     -20424.871      47.532918      48.775266      124.87359    
     24000  -20534.357      112.62118     -20421.736      47.520665      48.768357      124.92936    
     24100  -20531.027      112.93348     -20418.094      47.505221      48.758172      124.98513    
     24200  -20524.706      110.63722     -20414.069      47.493132      48.754573      125.0409     
     24300  -20520.01       113.55391     -20406.456      47.47759       48.746048      125.09668    
     24400  -20513.288      114.60207     -20398.686      47.464858      48.740444      125.15245    
     24500  -20506.607      113.46473     -20393.143      47.452253      48.733305      125.20822    
     24600  -20504.795      114.2223      -20390.572      47.439301      48.723556      125.26399    
     24700  -20499.598      110.23876     -20389.359      47.429582      48.717223      125.31976    
     24800  -20495.778      112.46443     -20383.313      47.417927      48.706221      125.37554    
     24900  -20490.212      113.63164     -20376.581      47.408951      48.699339      125.43131    
     25000  -20484.664      113.86277     -20370.801      47.399579      48.690972      125.48708    
     25100  -20480.427      115.0246      -20365.402      47.389196      48.680692      125.54285    
     25200  -20475.875      116.352       -20359.523      47.381144      48.674362      125.59863    
     25300  -20469.945      116.26686     -20353.678      47.369978      48.66443       125.6544     
     25400  -20467.034      116.77467     -20350.26       47.359938      48.657946      125.71017    
     25500  -20460.328      112.6539      -20347.674      47.349181      48.651996      125.76594    
     25600  -20455.483      111.82164     -20343.662      47.33686       48.644626      125.82171    
     25700  -20446.465      112.06204     -20334.403      47.326921      48.640778      125.87749    
     25800  -20440.392      113.3303      -20327.062      47.314839      48.633118      125.93326    
     25900  -20439.549      116.29735     -20323.251      47.304068      48.626622      125.98903    
     26000  -20431.857      110.85572     -20321.001      47.294753      48.621288      126.0448     
     26100  -20428.216      111.78406     -20316.432      47.283348      48.611914      126.10057    
     26200  -20422.49       112.45484     -20310.036      47.276031      48.607367      126.15635    
     26300  -20417.482      118.02796     -20299.454      47.266318      48.59819       126.21212    
     26400  -20410.602      115.70819     -20294.894      47.258605      48.590746      126.26789    
     26500  -20407.114      114.13288     -20292.981      47.250352      48.583074      126.32366    
     26600  -20403.742      113.77886     -20289.963      47.240255      48.573552      126.37943    
     26700  -20398.664      113.67475     -20284.989      47.232649      48.568812      126.43521    
     26800  -20391.165      114.12271     -20277.042      47.222532      48.560508      126.49098    
     26900  -20385.017      116.79108     -20268.226      47.21394       48.553904      126.54675    
     27000  -20379.175      115.13474     -20264.041      47.206153      48.54768       126.60252    
     27100  -20374.914      114.53839     -20260.375      47.196616      48.538965      126.65829    
     27200  -20369.136      113.05203     -20256.084      47.189817      48.53395       126.71407    
     27300  -20368.071      116.57713     -20251.494      47.180318      48.525556      126.76984    
     27400  -20359.574      112.11914     -20247.455      47.17234       48.519106      126.82561    
     27500  -20354.255      111.21484     -20243.04       47.163769      48.513218      126.88138    
     27600  -20347.89       111.4503      -20236.44       47.153573      48.50571       126.93715    
     27700  -20343.003      115.13262     -20227.87       47.145659      48.500719      126.99293    
     27800  -20336.545      114.86076     -20221.685      47.135644      48.492352      127.0487     
     27900  -20332.376      113.57381     -20218.802      47.12746       48.485931      127.10447    
     28000  -20329.824      112.56114     -20217.262      47.119709      48.479916      127.16024    
     28100  -20325.217      113.77188     -20211.445      47.110363      48.472171      127.21601    
     28200  -20317.896      113.96607     -20203.93       47.103341      48.468473      127.27179    
     28300  -20309.947      113.94506     -20196.002      47.092944      48.460882      127.32756    
     28400  -20303.519      113.46645     -20190.052      47.085045      48.455084      127.38333    
     28500  -20298.087      113.2848      -20184.802      47.077324      48.447656      127.4391     
     28600  -20293.291      112.54173     -20180.75       47.068605      48.438267      127.49487    
     28700  -20290.798      114.75752     -20176.04       47.062336      48.432117      127.55065    
     28800  -20286.484      116.14952     -20170.334      47.053307      48.422967      127.60642    
     28900  -20277.305      114.16195     -20163.143      47.045947      48.416659      127.66219    
     29000  -20272.254      116.07214     -20156.182      47.038329      48.410591      127.71796    
     29100  -20263.87       112.67775     -20151.192      47.02921       48.402518      127.77373    
     29200  -20261.08       111.9638      -20149.116      47.022937      48.397497      127.82951    
     29300  -20260.464      114.71623     -20145.748      47.014171      48.390057      127.88528    
     29400  -20251.98       112.70169     -20139.278      47.006713      48.384458      127.94105    
     29500  -20245.064      114.37853     -20130.686      46.999231      48.379073      127.99682    
     29600  -20237.634      113.05125     -20124.582      46.990319      48.372122      128.05259    
     29700  -20233.448      114.54433     -20118.903      46.982127      48.366358      128.10837    
     29800  -20228.831      114.75586     -20114.075      46.972273      48.358762      128.16414    
     29900  -20224.671      113.05784     -20111.614      46.962848      48.351634      128.21991    
     30000  -20216.904      108.34969     -20108.555      46.954315      48.345064      128.27568    
     30100  -20212.69       112.08766     -20100.603      46.945302      48.337311      128.33145    
     30200  -20204.519      112.31321     -20092.206      46.938141      48.330988      128.38723    
     30300  -20201.965      116.4754      -20085.49       46.930108      48.324164      128.443      
     30400  -20193.371      114.31869     -20079.052      46.921816      48.317361      128.49877    
     30500  -20186.322      114.02692     -20072.295      46.91463       48.311204      128.55454    
     30600  -20179.51       114.85633     -20064.654      46.906639      48.303991      128.61032    
     30700  -20171.446      112.16164     -20059.285      46.899219      48.297812      128.66609    
     30800  -20170.241      112.89787     -20057.343      46.890606      48.290087      128.72186    
     30900  -20167.146      113.63253     -20053.513      46.883078      48.283492      128.77763    
     31000  -20158.904      112.2928      -20046.612      46.874597      48.276727      128.8334     
     31100  -20155.188      116.90744     -20038.281      46.865092      48.269369      128.88918    
     31200  -20145.039      115.62757     -20029.411      46.857666      48.263849      128.94495    
     31300  -20138.639      116.68773     -20021.951      46.848522      48.256087      129.00072    
     31400  -20135.953      115.01117     -20020.942      46.841441      48.250141      129.05649    
     31500  -20131.656      113.77875     -20017.877      46.833431      48.242868      129.11226    
     31600  -20126.162      112.904       -20013.258      46.824367      48.235387      129.16804    
     31700  -20120.468      113.26295     -20007.205      46.816882      48.230855      129.22381    
     31800  -20114.456      115.99636     -19998.459      46.806691      48.223733      129.27958    
     31900  -20104.309      114.65328     -19989.656      46.798541      48.217751      129.33535    
     32000  -20100.69       116.01818     -19984.672      46.789516      48.21055       129.39112    
     32100  -20095.58       114.03031     -19981.55       46.780521      48.202648      129.4469     
     32200  -20092.19       115.31341     -19976.876      46.772711      48.195927      129.50267    
     32300  -20085.331      114.09525     -19971.236      46.763452      48.188258      129.55844    
     32400  -20078.146      114.13714     -19964.009      46.7553        48.181902      129.61421    
     32500  -20068.466      113.15668     -19955.31       46.747444      48.175536      129.66998    
     32600  -20063.449      115.45109     -19947.998      46.738107      48.167287      129.72576    
     32700  -20061.251      114.79322     -19946.458      46.7311        48.161166      129.78153    
     32800  -20057.441      114.39574     -19943.045      46.72219       48.153245      129.8373     
     32900  -20050.782      112.95698     -19937.825      46.71363       48.146336      129.89307    
     33000  -20041.351      111.07961     -19930.272      46.705413      48.140071      129.94884    
     33100  -20034.439      113.44229     -19920.997      46.695401      48.132387      130.00462    
     33200  -20028.778      113.88772     -19914.89       46.687837      48.125689      130.06039    
     33300  -20025.71       114.5669      -19911.144      46.679518      48.117009      130.11616    
     33400  -20018.594      112.06041     -19906.533      46.671237      48.108553      130.17193    
     33500  -20014.862      113.42994     -19901.432      46.663762      48.102146      130.2277     
     33600  -20009.878      113.97692     -19895.902      46.653161      48.094329      130.28348    
     33700  -20003.23       113.05109     -19890.179      46.644522      48.088593      130.33925    
     33800  -19996.964      113.4139      -19883.55       46.634611      48.081992      130.39502    
     33900  -19991.63       116.07318     -19875.556      46.624988      48.075498      130.45079    
     34000  -19982.482      114.70741     -19867.775      46.616737      48.069203      130.50656    
     34100  -19975.646      113.69769     -19861.948      46.606974      48.060557      130.56234    
     34200  -19972.894      113.38786     -19859.507      46.59926       48.053602      130.61811    
     34300  -19967.265      111.24456     -19856.02       46.590525      48.046031      130.67388    
     34400  -19960.579      111.83254     -19848.746      46.580533      48.037516      130.72965    
     34500  -19953.272      113.63562     -19839.636      46.572914      48.031447      130.78542    
     34600  -19948.745      115.86077     -19832.884      46.562993      48.023645      130.8412     
     34700  -19939.902      111.79926     -19828.103      46.554178      48.016916      130.89697    
     34800  -19935.04       111.59543     -19823.445      46.545557      48.010589      130.95274    
     34900  -19929.869      111.70195     -19818.167      46.535539      48.002143      131.00851    
     35000  -19923.276      113.08715     -19810.189      46.528133      47.994819      131.06428    
     35100  -19917.198      116.30203     -19800.896      46.518984      47.984556      131.12006    
     35200  -19912.188      116.0787      -19796.109      46.510878      47.975245      131.17583    
     35300  -19906.788      113.09032     -19793.697      46.503767      47.967488      131.2316     
     35400  -19898.222      110.10376     -19788.118      46.493764      47.95855       131.28737    
     35500  -19893.881      113.30243     -19780.579      46.48546       47.952513      131.34314    
     35600  -19886.498      114.26915     -19772.229      46.475504      47.946418      131.39892    
     35700  -19879.316      113.42794     -19765.888      46.464359      47.939493      131.45469    
     35800  -19875.571      112.33879     -19763.232      46.455205      47.933534      131.51046    
     35900  -19872.869      111.7605      -19761.109      46.44459       47.925613      131.56623    
     36000  -19864.658      111.61546     -19753.043      46.43551       47.917834      131.622      
     36100  -19858.56       114.67454     -19743.885      46.427071      47.909772      131.67778    
     36200  -19848.006      112.07141     -19735.934      46.416801      47.900504      131.73355    
     36300  -19844.591      115.60151     -19728.99       46.408514      47.893092      131.78932    
     36400  -19838.675      115.55532     -19723.12       46.398445      47.884731      131.84509    
     36500  -19830.906      110.4215      -19720.484      46.388541      47.876671      131.90087    
     36600  -19828.926      113.01806     -19715.908      46.38002       47.869347      131.95664    
     36700  -19822.568      115.45128     -19707.117      46.370476      47.860644      132.01241    
     36800  -19813.726      115.11467     -19698.611      46.362569      47.852781      132.06818    
     36900  -19804.047      111.67592     -19692.371      46.354143      47.843952      132.12395    
     37000  -19802.435      115.5703      -19686.865      46.345289      47.834731      132.17973    
     37100  -19797.588      112.90717     -19684.68       46.337277      47.825941      132.2355     
     37200  -19794.713      113.94276     -19680.771      46.328016      47.816492      132.29127    
     37300  -19782.84       111.12724     -19671.713      46.318882      47.807405      132.34704    
     37400  -19776.434      113.69271     -19662.742      46.309596      47.798284      132.40281    
     37500  -19768.328      112.59059     -19655.737      46.299676      47.789166      132.45859    
     37600  -19761.815      112.44207     -19649.373      46.290024      47.781336      132.51436    
     37700  -19756.887      115.14616     -19641.741      46.27879       47.774129      132.57013    
     37800  -19748.442      114.56292     -19633.879      46.267574      47.767955      132.6259     
     37900  -19742.895      113.6285      -19629.267      46.256659      47.762657      132.68167    
     38000  -19736.884      110.55939     -19626.325      46.244346      47.756488      132.73745    
     38100  -19731.705      110.56197     -19621.143      46.233501      47.750686      132.79322    
     38200  -19725.972      113.62046     -19612.352      46.222512      47.743402      132.84899    
     38300  -19715.846      113.56846     -19602.278      46.212924      47.735524      132.90476    
     38400  -19714.722      117.78808     -19596.934      46.203487      47.726804      132.96053    
     38500  -19708.256      114.56396     -19593.692      46.19329       47.716857      133.01631    
     38600  -19701.365      111.78935     -19589.575      46.184926      47.708052      133.07208    
     38700  -19694.629      112.06023     -19582.569      46.175161      47.697708      133.12785    
     38800  -19687.972      115.26477     -19572.707      46.166044      47.687867      133.18362    
     38900  -19680.068      114.79056     -19565.277      46.157873      47.679019      133.23939    
     39000  -19674.324      113.85269     -19560.471      46.147529      47.6688        133.29517    
     39100  -19669.853      113.59693     -19556.256      46.138163      47.660007      133.35094    
     39200  -19663.877      112.48947     -19551.388      46.128583      47.651548      133.40671    
     39300  -19657.911      112.43272     -19545.478      46.11855       47.642772      133.46248    
     39400  -19650.346      114.03364     -19536.313      46.110082      47.635523      133.51825    
     39500  -19643.633      116.49762     -19527.135      46.098666      47.626546      133.57403    
     39600  -19638.936      116.72864     -19522.208      46.088414      47.618624      133.6298     
     39700  -19629.562      110.39686     -19519.165      46.078616      47.611129      133.68557    
     39800  -19627.931      114.46854     -19513.463      46.066661      47.602485      133.74134    
     39900  -19621.4        115.50187     -19505.898      46.056742      47.594865      133.79711    
     40000  -19614.289      115.66652     -19498.623      46.045578      47.586208      133.85289    
     40100  -19605.523      113.80707     -19491.715      46.034322      47.578003      133.90866    
     40200  -19598.622      114.26144     -19484.36       46.024109      47.571353      133.96443    
     40300  -19591.167      114.52311     -19476.644      46.011648      47.562994      134.0202     
     40400  -19585.461      115.22629     -19470.234      46.001175      47.55577       134.07597    
     40500  -19578.874      112.59894     -19466.275      45.990406      47.547839      134.13175    
     40600  -19573.287      111.38917     -19461.897      45.978286      47.538118      134.18752    
     40700  -19569.19       113.98198     -19455.208      45.96906       47.52952       134.24329    
     40800  -19558.5        113.8505      -19444.649      45.959044      47.519649      134.29906    
     40900  -19552.869      116.00341     -19436.866      45.950029      47.510644      134.35483    
     41000  -19547.416      114.93352     -19432.483      45.941363      47.501974      134.41061    
     41100  -19540.886      112.63854     -19428.247      45.931051      47.492393      134.46638    
     41200  -19534.643      112.38896     -19422.254      45.922313      47.484359      134.52215    
     41300  -19528.212      112.48095     -19415.731      45.910961      47.475226      134.57792    
     41400  -19524.708      115.5148      -19409.194      45.898973      47.466624      134.63369    
     41500  -19515.464      112.51908     -19402.945      45.887712      47.45927       134.68947    
     41600  -19508.624      112.48405     -19396.14       45.875282      47.451478      134.74524    
     41700  -19503.18       115.46394     -19387.716      45.86432       47.444708      134.80101    
     41800  -19497.648      117.21716     -19380.431      45.852534      47.43714       134.85678    
     41900  -19490.243      113.54108     -19376.702      45.84034       47.429297      134.91256    
     42000  -19486.564      113.32401     -19373.24       45.829249      47.422308      134.96833    
     42100  -19479.748      113.502       -19366.246      45.816798      47.414634      135.0241     
     42200  -19470.713      113.44892     -19357.265      45.80491       47.406957      135.07987    
     42300  -19462.891      112.71479     -19350.176      45.794787      47.399227      135.13564    
     42400  -19457.42       114.03097     -19343.389      45.784151      47.389845      135.19142    
     42500  -19449.625      112.95494     -19336.671      45.775236      47.381152      135.24719    
     42600  -19445.48       114.50233     -19330.978      45.765792      47.372148      135.30296    
     42700  -19440.851      113.72378     -19327.127      45.754535      47.362367      135.35873    
     42800  -19433.863      111.9779      -19321.886      45.745055      47.353767      135.4145     
     42900  -19426.299      113.53828     -19312.761      45.734278      47.344092      135.47028    
     43000  -19417.635      114.73505     -19302.9        45.722866      47.33449       135.52605    
     43100  -19412.668      115.53819     -19297.129      45.712983      47.326398      135.58182    
     43200  -19403.89       111.45752     -19292.433      45.701193      47.317256      135.63759    
     43300  -19401.97       114.65954     -19287.31       45.691112      47.309604      135.69336    
     43400  -19396.263      111.44224     -19284.821      45.680613      47.302576      135.74914    
     43500  -19389.79       110.98244     -19278.807      45.666867      47.294248      135.80491    
     43600  -19380.305      111.9957      -19268.309      45.656705      47.288977      135.86068    
     43700  -19376.367      116.22275     -19260.145      45.644         47.281863      135.91645    
     43800  -19366.705      113.33649     -19253.369      45.631742      47.274825      135.97222    
     43900  -19361.262      113.11235     -19248.15       45.62133       47.268863      136.028      
     44000  -19356.417      112.39475     -19244.022      45.608155      47.260441      136.08377    
     44100  -19349.986      111.70279     -19238.283      45.598079      47.253937      136.13954    
     44200  -19341.502      113.73051     -19227.772      45.586696      47.245699      136.19531    
     44300  -19333.893      114.75026     -19219.143      45.574791      47.236362      136.25108    
     44400  -19327.743      114.31462     -19213.428      45.565868      47.228978      136.30686    
     44500  -19320.358      111.05358     -19209.305      45.553947      47.219585      136.36263    
     44600  -19316.488      110.97847     -19205.509      45.543212      47.21127       136.4184     
     44700  -19311.785      113.04371     -19198.742      45.533596      47.203741      136.47417    
     44800  -19300.89       113.28451     -19187.606      45.522009      47.194721      136.52994    
     44900  -19292.656      112.79847     -19179.858      45.512656      47.187602      136.58572    
     45000  -19289.569      114.94128     -19174.628      45.501297      47.179516      136.64149    
     45100  -19284.958      113.78438     -19171.174      45.490174      47.171784      136.69726    
     45200  -19278.282      111.58652     -19166.695      45.479725      47.165082      136.75303    
     45300  -19272.45       115.04466     -19157.405      45.466907      47.157263      136.8088     
     45400  -19259.743      113.4231      -19146.32       45.455558      47.151181      136.86458    
     45500  -19257.757      117.70657     -19140.051      45.443143      47.144377      136.92035    
     45600  -19249.247      112.77686     -19136.47       45.431632      47.137151      136.97612    
     45700  -19243.711      112.19301     -19131.518      45.42114       47.12969       137.03189    
     45800  -19236.275      112.81098     -19123.464      45.410014      47.12139       137.08766    
     45900  -19226.727      113.805       -19112.922      45.399925      47.113991      137.14344    
     46000  -19219.724      114.49808     -19105.226      45.389095      47.106018      137.19921    
     46100  -19217.02       116.77337     -19100.246      45.378494      47.098661      137.25498    
     46200  -19210.736      115.20489     -19095.532      45.367839      47.091705      137.31075    
     46300  -19203.319      112.30569     -19091.014      45.356748      47.084014      137.36652    
     46400  -19197.686      111.90588     -19085.78       45.347085      47.076868      137.4223     
     46500  -19191.084      112.62818     -19078.456      45.336251      47.068706      137.47807    
     46600  -19182.552      115.36161     -19067.191      45.325888      47.060608      137.53384    
     46700  -19175.918      115.61021     -19060.307      45.316585      47.053759      137.58961    
     46800  -19171.973      115.90784     -19056.065      45.304755      47.045312      137.64538    
     46900  -19165.683      113.89956     -19051.783      45.293789      47.039003      137.70116    
     47000  -19157.207      112.07375     -19045.133      45.282478      47.033028      137.75693    
     47100  -19150.581      112.83871     -19037.742      45.269911      47.026098      137.8127     
     47200  -19143.492      113.09924     -19030.393      45.259198      47.020144      137.86847    
     47300  -19138.742      115.74751     -19022.994      45.247722      47.013224      137.92425    
     47400  -19131.962      114.05455     -19017.908      45.236519      47.006236      137.98002    
     47500  -19126.035      111.45445     -19014.581      45.226509      46.999594      138.03579    
     47600  -19116.636      109.7768      -19006.86       45.21586       46.992468      138.09156    
     47700  -19108.792      112.81889     -18995.973      45.205375      46.985988      138.14733    
     47800  -19103.582      114.96273     -18988.62       45.195124      46.980074      138.20311    
     47900  -19094.658      111.41199     -18983.246      45.183694      46.972944      138.25888    
     48000  -19090.859      112.03951     -18978.82       45.172857      46.966354      138.31465    
     48100  -19085.929      111.20721     -18974.722      45.162258      46.960054      138.37042    
     48200  -19081.134      111.97584     -18969.159      45.150735      46.95242       138.42619    
     48300  -19069.859      111.73074     -18958.128      45.14107       46.946097      138.48197    
     48400  -19062.753      114.30451     -18948.449      45.131025      46.939021      138.53774    
     48500  -19057.736      116.32242     -18941.413      45.120388      46.931597      138.59351    
     48600  -19051.071      114.04654     -18937.025      45.110743      46.925627      138.64928    
     48700  -19043.627      110.707       -18932.92       45.099776      46.918483      138.70505    
     48800  -19039.06       114.15134     -18924.909      45.089799      46.912337      138.76083    
     48900  -19030.073      115.08687     -18914.986      45.080134      46.906559      138.8166     
     49000  -19023.966      115.96051     -18908.006      45.068914      46.899306      138.87237    
     49100  -19019.077      116.21127     -18902.866      45.05933       46.894176      138.92814    
     49200  -19010.831      112.13566     -18898.695      45.049261      46.888338      138.98391    
     49300  -19003.619      111.08076     -18892.538      45.038534      46.880965      139.03969    
     49400  -18998.605      116.51663     -18882.088      45.029683      46.875218      139.09546    
     49500  -18988.021      115.50358     -18872.517      45.019255      46.867225      139.15123    
     49600  -18979.332      112.28718     -18867.045      45.009649      46.86033       139.207      
     49700  -18976.924      114.05452     -18862.869      45.000865      46.854833      139.26277    
     49800  -18967.064      109.8827      -18857.181      44.989819      46.8471        139.31855    
     49900  -18961.202      111.53447     -18849.667      44.98027       46.841479      139.37432    
     50000  -18956.617      115.43459     -18841.183      44.970082      46.835539      139.43009    
     50100  -18945.877      116.44194     -18829.435      44.958753      46.828307      139.48586    
     50200  -18936.589      114.11945     -18822.469      44.949707      46.824051      139.54163    
     50300  -18935.431      115.43672     -18819.995      44.939416      46.817675      139.59741    
     50400  -18929.024      113.25773     -18815.766      44.92967       46.81107       139.65318    
     50500  -18923.711      113.22998     -18810.481      44.921683      46.806103      139.70895    
     50600  -18916.398      112.16314     -18804.235      44.912302      46.798684      139.76472    
     50700  -18909.505      113.37334     -18796.132      44.904691      46.792528      139.82049    
     50800  -18900.89       115.33161     -18785.558      44.897142      46.785693      139.87627    
     50900  -18895.721      117.00881     -18778.712      44.88827       46.777627      139.93204    
     51000  -18891.184      115.73342     -18775.451      44.879575      46.771401      139.98781    
     51100  -18885.315      115.21707     -18770.098      44.869696      46.764975      140.04358    
     51200  -18875.719      112.99633     -18762.722      44.859773      46.758837      140.09935    
     51300  -18869.301      114.86354     -18754.437      44.85035       46.752977      140.15513    
     51400  -18860.939      114.75182     -18746.187      44.840995      46.746579      140.2109     
     51500  -18851.459      113.15035     -18738.309      44.832256      46.740598      140.26667    
     51600  -18848.75       115.55816     -18733.192      44.823678      46.734354      140.32244    
     51700  -18841.267      112.00518     -18729.261      44.815389      46.727645      140.37821    
     51800  -18834.314      110.92866     -18723.386      44.807841      46.721158      140.43399    
     51900  -18829.243      114.08652     -18715.157      44.800094      46.713766      140.48976    
     52000  -18820.707      117.40976     -18703.297      44.792871      46.707443      140.54553    
     52100  -18814.359      117.2459      -18697.113      44.785025      46.700836      140.6013     
     52200  -18808.507      115.53168     -18692.975      44.777712      46.694689      140.65707    
     52300  -18801.214      113.3167      -18687.897      44.769692      46.687507      140.71285    
     52400  -18793.958      111.76524     -18682.193      44.76185       46.680309      140.76862    
     52500  -18787.552      112.59119     -18674.96       44.754465      46.673434      140.82439    
     52600  -18778.567      113.53953     -18665.027      44.746728      46.666024      140.88016    
     52700  -18770.811      115.79548     -18655.016      44.739261      46.659697      140.93593    
     52800  -18766.267      116.07728     -18650.189      44.731361      46.6534        140.99171    
     52900  -18759.18       112.84924     -18646.331      44.723342      46.64715       141.04748    
     53000  -18754.096      113.68695     -18640.409      44.715943      46.642041      141.10325    
     53100  -18747.412      112.79648     -18634.615      44.707387      46.635146      141.15902    
     53200  -18739.653      111.90139     -18627.751      44.699548      46.629337      141.2148     
     53300  -18733.153      114.56071     -18618.592      44.691648      46.623501      141.27057    
     53400  -18727.925      118.96827     -18608.957      44.683279      46.616108      141.32634    
     53500  -18718.771      115.62812     -18603.143      44.676349      46.609593      141.38211    
     53600  -18712.417      112.46625     -18599.951      44.669195      46.602529      141.43788    
     53700  -18704.735      111.42907     -18593.306      44.662707      46.596052      141.49366    
     53800  -18698.667      113.54391     -18585.123      44.656072      46.588666      141.54943    
     53900  -18691.137      115.47191     -18575.665      44.649228      46.580962      141.6052     
     54000  -18682.184      116.49835     -18565.686      44.643452      46.574827      141.66097    
     54100  -18675.198      117.51215     -18557.686      44.636684      46.567326      141.71674    
     54200  -18668.948      113.46623     -18555.482      44.630456      46.561063      141.77252    
     54300  -18665.358      114.84947     -18550.508      44.624075      46.554004      141.82829    
     54400  -18659.964      115.04162     -18544.923      44.617456      46.546483      141.88406    
     54500  -18650.835      112.33143     -18538.504      44.611614      46.540321      141.93983    
     54600  -18643.861      112.56674     -18531.294      44.605593      46.533391      141.9956     
     54700  -18635.401      113.79741     -18521.603      44.599147      46.52555       142.05138    
     54800  -18626.95       114.77354     -18512.177      44.593973      46.519729      142.10715    
     54900  -18622.523      115.23628     -18507.287      44.58696       46.511627      142.16292    
     55000  -18612.984      109.59637     -18503.387      44.580072      46.505016      142.21869    
     55100  -18608.25       111.83109     -18496.419      44.573674      46.500189      142.27446    
     55200  -18602.255      112.90797     -18489.347      44.565476      46.493311      142.33024    
     55300  -18595.429      114.01956     -18481.41       44.558865      46.488534      142.38601    
     55400  -18588.76       116.43697     -18472.323      44.552668      46.482916      142.44178    
     55500  -18580.59       114.32476     -18466.265      44.545697      46.475164      142.49755    
     55600  -18577.308      114.59556     -18462.713      44.540629      46.469427      142.55332    
     55700  -18567.462      110.8137      -18456.649      44.534489      46.462151      142.6091     
     55800  -18560.777      112.93425     -18447.843      44.528896      46.455376      142.66487    
     55900  -18553.124      115.7909      -18437.334      44.523801      46.448595      142.72064    
     56000  -18545.214      116.52326     -18428.69       44.517955      46.439733      142.77641    
     56100  -18542.716      117.6258      -18425.09       44.513692      46.433042      142.83218    
     56200  -18534.239      112.65986     -18421.579      44.508878      46.425608      142.88796    
     56300  -18527.27       112.28815     -18414.982      44.503063      46.416755      142.94373    
     56400  -18520.105      114.47982     -18405.625      44.498679      46.410395      142.9995     
     56500  -18511.688      115.8691      -18395.819      44.492326      46.402394      143.05527    
     56600  -18505.113      115.87332     -18389.239      44.486376      46.39611       143.11104    
     56700  -18500.457      113.16716     -18387.289      44.480804      46.391109      143.16682    
     56800  -18493.154      113.29934     -18379.854      44.473752      46.384067      143.22259    
     56900  -18483.425      113.22069     -18370.204      44.468266      46.37913       143.27836    
     57000  -18478.023      116.76061     -18361.262      44.462243      46.373285      143.33413    
     57100  -18468.612      113.4108      -18355.201      44.455736      46.366209      143.3899     
     57200  -18465.906      113.69555     -18352.211      44.450844      46.361259      143.44568    
     57300  -18456.606      111.20102     -18345.405      44.44456       46.353965      143.50145    
     57400  -18451.922      115.66234     -18336.26       44.439064      46.347261      143.55722    
     57500  -18442.16       115.79903     -18326.361      44.434636      46.341244      143.61299    
     57600  -18434.245      114.9043      -18319.341      44.428918      46.332681      143.66876    
     57700  -18428.545      111.78053     -18316.764      44.425176      46.326195      143.72454    
     57800  -18422.212      111.75694     -18310.455      44.420566      46.318781      143.78031    
     57900  -18415.325      113.78332     -18301.541      44.414876      46.310516      143.83608    
     58000  -18405.604      114.86907     -18290.735      44.410691      46.304805      143.89185    
     58100  -18399.019      115.25771     -18283.761      44.405155      46.297338      143.94762    
     58200  -18395.812      114.60236     -18281.21       44.400627      46.290567      144.0034     
     58300  -18389.633      115.43492     -18274.198      44.396778      46.284069      144.05917    
     58400  -18377.907      111.66224     -18266.244      44.391889      46.27624       144.11494    
     58500  -18373.038      115.06674     -18257.971      44.388108      46.270062      144.17071    
     58600  -18366.043      116.71971     -18249.323      44.382944      46.262874      144.22649    
     58700  -18358.462      114.50045     -18243.961      44.377427      46.256312      144.28226    
     58800  -18351.717      111.94962     -18239.767      44.371584      46.250437      144.33803    
     58900  -18343.122      110.45889     -18232.664      44.366134      46.244435      144.3938     
     59000  -18336.244      112.89562     -18223.349      44.360858      46.237614      144.44957    
     59100  -18329.802      117.71098     -18212.091      44.355685      46.230282      144.50535    
     59200  -18323.317      121.50205     -18201.815      44.351311      46.223395      144.56112    
     59300  -18316.076      116.95193     -18199.124      44.34653       46.216379      144.61689    
     59400  -18307.044      113.21578     -18193.828      44.342276      46.209798      144.67266    
     59500  -18303.329      114.61944     -18188.709      44.337963      46.203115      144.72843    
     59600  -18293.932      111.18097     -18182.751      44.333197      46.196033      144.78421    
     59700  -18287.386      111.92182     -18175.464      44.328791      46.189534      144.83998    
     59800  -18278.387      111.35468     -18167.032      44.323497      46.182369      144.89575    
     59900  -18271.85       115.30653     -18156.544      44.31864       46.176008      144.95152    
     60000  -18262.117      114.79391     -18147.323      44.31332       46.169636      145.00729    
     60100  -18258.579      115.81339     -18142.766      44.307816      46.163148      145.06307    
     60200  -18253.967      116.15376     -18137.813      44.303629      46.157721      145.11884    
     60300  -18242.497      111.81222     -18130.685      44.298234      46.150693      145.17461    
     60400  -18238.726      115.51662     -18123.21       44.293762      46.144619      145.23038    
     60500  -18230.733      113.96681     -18116.766      44.289307      46.138478      145.28615    
     60600  -18223.59       111.8563      -18111.734      44.283434      46.131267      145.34193    
     60700  -18215.966      112.35886     -18103.607      44.279438      46.125732      145.3977     
     60800  -18205.665      113.40988     -18092.255      44.273738      46.118138      145.45347    
     60900  -18197.094      115.61984     -18081.475      44.269314      46.111301      145.50924    
     61000  -18192.599      117.10195     -18075.497      44.265425      46.10474       145.56501    
     61100  -18185.942      116.0994      -18069.842      44.260095      46.097422      145.62079    
     61200  -18177.204      114.1116      -18063.093      44.255857      46.092183      145.67656    
     61300  -18170.202      112.65225     -18057.55       44.250274      46.08634       145.73233    
     61400  -18163.569      112.56203     -18051.007      44.244562      46.080642      145.7881     
     61500  -18157.067      114.67434     -18042.393      44.239313      46.07528       145.84387    
     61600  -18144.64       112.23445     -18032.405      44.233418      46.068789      145.89965    
     61700  -18139.846      117.25855     -18022.588      44.229221      46.063232      145.95542    
     61800  -18130.474      113.06862     -18017.405      44.223546      46.056609      146.01119    
     61900  -18124.728      113.02018     -18011.707      44.218398      46.050905      146.06696    
     62000  -18120.248      115.05314     -18005.195      44.2139        46.045582      146.12273    
     62100  -18108.669      110.44184     -17998.227      44.207708      46.03862       146.17851    
     62200  -18102.516      110.74052     -17991.775      44.203464      46.033124      146.23428    
     62300  -18098.412      112.60164     -17985.811      44.198076      46.026518      146.29005    
     62400  -18092.067      115.47622     -17976.59       44.193382      46.0203        146.34582    
     62500  -18081.494      116.82385     -17964.671      44.188281      46.014105      146.40159    
     62600  -18070.283      114.1995      -17956.083      44.182021      46.007353      146.45737    
     62700  -18063.915      113.11112     -17950.804      44.177466      46.002066      146.51314    
     62800  -18056.115      110.94063     -17945.175      44.171829      45.995818      146.56891    
     62900  -18050.045      113.8165      -17936.228      44.166922      45.990275      146.62468    
     63000  -18042.867      115.19957     -17927.668      44.161586      45.984813      146.68045    
     63100  -18033.319      112.58105     -17920.738      44.155914      45.979019      146.73623    
     63200  -18028.847      113.80376     -17915.044      44.150747      45.973959      146.792      
     63300  -18021.369      112.90513     -17908.463      44.144275      45.968128      146.84777    
     63400  -18009.41       110.82009     -17898.59       44.138973      45.963174      146.90354    
     63500  -18001.497      113.49089     -17888.006      44.133459      45.957743      146.95931    
     63600  -17989.105      112.7984      -17876.307      44.127027      45.951952      147.01509    
     63700  -17984.57       120.47932     -17864.091      44.121692      45.947267      147.07086    
     63800  -17977.016      116.98205     -17860.034      44.115118      45.942256      147.12663    
     63900  -17969.711      114.35457     -17855.356      44.108676      45.937651      147.1824     
     64000  -17961.271      111.67234     -17849.598      44.102692      45.932631      147.23818    
     64100  -17954.943      112.65415     -17842.289      44.097026      45.92684       147.29395    
     64200  -17951.286      116.86834     -17834.418      44.092289      45.920814      147.34972    
     64300  -17938.78       113.04825     -17825.732      44.086578      45.9136        147.40549    
     64400  -17931.77       115.19505     -17816.575      44.082044      45.907382      147.46126    
     64500  -17923.485      114.93921     -17808.546      44.0767        45.900812      147.51704    
     64600  -17913.93       111.7272      -17802.203      44.071533      45.89472       147.57281    
     64700  -17906.592      111.80887     -17794.783      44.0667        45.889426      147.62858    
     64800  -17896.831      110.89252     -17785.939      44.060326      45.88361       147.68435    
     64900  -17888.23       114.64886     -17773.581      44.055124      45.879106      147.74012    
     65000  -17878.291      116.04508     -17762.246      44.048335      45.873796      147.7959     
     65100  -17872.323      116.12775     -17756.195      44.042129      45.868749      147.85167    
     65200  -17862.883      113.28572     -17749.597      44.037085      45.863408      147.90744    
     65300  -17858.263      115.70743     -17742.555      44.030881      45.856586      147.96321    
     65400  -17847.968      112.45473     -17735.514      44.026012      45.851154      148.01898    
     65500  -17840.305      112.67427     -17727.631      44.019836      45.845267      148.07476    
     65600  -17831.625      113.04482     -17718.58       44.013592      45.840088      148.13053    
     65700  -17821.42       112.22899     -17709.192      44.007644      45.835886      148.1863     
     65800  -17814.568      115.84724     -17698.72       44.000478      45.830672      148.24207    
     65900  -17800.421      111.32002     -17689.101      43.994437      45.82593       148.29784    
     66000  -17797.293      114.62047     -17682.672      43.988135      45.820269      148.35362    
     66100  -17788.112      112.53644     -17675.575      43.982657      45.814728      148.40939    
     66200  -17779.091      112.96576     -17666.125      43.9771        45.808855      148.46516    
     66300  -17770.026      113.28698     -17656.739      43.971703      45.802023      148.52093    
     66400  -17762.443      113.17923     -17649.263      43.96759       45.795761      148.5767     
     66500  -17753.393      110.92668     -17642.467      43.962131      45.788919      148.63248    
     66600  -17746.513      114.89609     -17631.617      43.957162      45.782919      148.68825    
     66700  -17734.548      115.23835     -17619.31       43.951582      45.777175      148.74402    
     66800  -17725.731      116.65737     -17609.073      43.944959      45.7717        148.79979    
     66900  -17717.204      113.38568     -17603.818      43.939205      45.767181      148.85556    
     67000  -17708.872      112.61991     -17596.252      43.93248       45.761871      148.91134    
     67100  -17703.058      116.02133     -17587.036      43.926785      45.756894      148.96711    
     67200  -17690.934      112.35352     -17578.58       43.921246      45.751687      149.02288    
     67300  -17682.612      111.71109     -17570.901      43.914616      45.745317      149.07865    
     67400  -17675.104      112.1746      -17562.929      43.90956       45.740068      149.13442    
     67500  -17666.007      112.95037     -17553.056      43.902586      45.733586      149.1902     
     67600  -17655.543      114.22794     -17541.315      43.897037      45.728276      149.24597    
     67700  -17642.34       114.3991      -17527.941      43.890888      45.722788      149.30174    
     67800  -17632.797      115.61303     -17517.184      43.884256      45.716903      149.35751    
     67900  -17626.597      115.7131      -17510.884      43.879458      45.712335      149.41328    
     68000  -17617.787      115.26821     -17502.519      43.872251      45.706049      149.46906    
     68100  -17609.172      115.38016     -17493.792      43.866814      45.701128      149.52483    
     68200  -17600.239      114.78205     -17485.457      43.860791      45.695691      149.5806     
     68300  -17590.688      115.11982     -17475.569      43.854248      45.689963      149.63637    
     68400  -17582.502      115.91054     -17466.591      43.848962      45.684959      149.69214    
     68500  -17572.803      112.10926     -17460.694      43.842219      45.678449      149.74792    
     68600  -17559.308      110.27015     -17449.038      43.837199      45.673121      149.80369    
     68700  -17551.368      115.11426     -17436.254      43.830842      45.666735      149.85946    
     68800  -17539.801      115.80912     -17423.992      43.824905      45.660808      149.91523    
     68900  -17530.574      113.6819      -17416.892      43.819301      45.655094      149.971      
     69000  -17522.654      115.10695     -17407.547      43.813056      45.648866      150.02678    
     69100  -17509.61       111.88036     -17397.729      43.807652      45.64298       150.08255    
     69200  -17504.958      116.4346      -17388.524      43.802078      45.636936      150.13832    
     69300  -17493.271      114.98815     -17378.283      43.795776      45.630981      150.19409    
     69400  -17479.541      111.7588      -17367.782      43.789612      45.62547       150.24986    
     69500  -17470.308      113.94108     -17356.367      43.782951      45.620035      150.30564    
     69600  -17459.002      113.75878     -17345.243      43.776168      45.614924      150.36141    
     69700  -17453.361      118.48771     -17334.874      43.769697      45.610044      150.41718    
     69800  -17439.937      115.4379      -17324.499      43.762887      45.604561      150.47295    
     69900  -17429.862      114.31412     -17315.548      43.756728      45.599417      150.52873    
     70000  -17419.334      113.92212     -17305.412      43.750082      45.594164      150.5845     
     70100  -17412.058      116.5597      -17295.498      43.743653      45.588804      150.64027    
     70200  -17400.656      115.13736     -17285.518      43.737197      45.583148      150.69604    
     70300  -17390.092      115.8247      -17274.267      43.730679      45.577302      150.75181    
     70400  -17378.837      114.51865     -17264.318      43.724617      45.571667      150.80759    
     70500  -17368.849      115.17575     -17253.673      43.717998      45.565632      150.86336    
     70600  -17358.355      114.91108     -17243.444      43.712306      45.560175      150.91913    
     70700  -17349.152      115.70791     -17233.444      43.70554       45.553847      150.9749     
     70800  -17338.123      116.75163     -17221.371      43.699474      45.54788       151.03067    
     70900  -17323.979      113.57445     -17210.405      43.693604      45.541985      151.08645    
     71000  -17315.598      114.93338     -17200.665      43.686982      45.535691      151.14222    
     71100  -17304.451      113.71683     -17190.734      43.681142      45.530166      151.19799    
     71200  -17296.662      116.37476     -17180.287      43.674602      45.524208      151.25376    
     71300  -17285.865      115.88385     -17169.981      43.668455      45.518594      151.30953    
     71400  -17273.696      114.88364     -17158.813      43.662292      45.512836      151.36531    
     71500  -17263.216      116.57752     -17146.638      43.65574       45.506524      151.42108    
     71600  -17254.85       119.55659     -17135.293      43.649957      45.500778      151.47685    
     71700  -17241.329      116.80913     -17124.52       43.643454      45.494617      151.53262    
     71800  -17229.01       115.59864     -17113.411      43.637003      45.488691      151.58839    
     71900  -17217.101      114.39673     -17102.704      43.630592      45.483013      151.64417    
     72000  -17208.995      117.61938     -17091.376      43.623478      45.477077      151.69994    
     72100  -17198.053      117.15944     -17080.893      43.616891      45.471767      151.75571    
     72200  -17185.882      116.02778     -17069.854      43.609756      45.466345      151.81148    
     72300  -17175.823      117.08753     -17058.735      43.602306      45.461019      151.86725    
     72400  -17162.228      115.53787     -17046.69       43.595326      45.456177      151.92303    
     72500  -17152.713      117.59273     -17035.121      43.587758      45.450461      151.9788     
     72600  -17142.357      118.64376     -17023.713      43.581468      45.445242      152.03457    
     72700  -17131.329      118.73097     -17012.598      43.574784      45.439253      152.09034    
     72800  -17118.63       117.21962     -17001.411      43.568345      45.433011      152.14611    
     72900  -17108.414      117.92457     -16990.49       43.562531      45.426872      152.20189    
     73000  -17094.624      116.79969     -16977.824      43.556113      45.419855      152.25766    
     73100  -17086.46       120.22614     -16966.233      43.550741      45.413539      152.31343    
     73200  -17072.237      117.1741      -16955.063      43.544289      45.406531      152.3692     
[...]
    181600  -20944.441      114.51742     -20829.923      46.110044      48.517245      212.82609    
    181700  -20946.458      114.70345     -20831.754      46.108376      48.515938      212.88186    
    181800  -20946.796      114.0883      -20832.708      46.106041      48.514397      212.93763    
    181900  -20944.95       112.69272     -20832.257      46.101536      48.512698      212.99341    
    182000  -20942.643      113.90147     -20828.741      46.09706       48.510058      213.04918    
    182100  -20942.82       116.26245     -20826.558      46.092966      48.507461      213.10495    
    182200  -20943.916      114.76219     -20829.154      46.090199      48.506329      213.16072    
    182300  -20945.32       113.23561     -20832.084      46.089572      48.506351      213.21649    
    182400  -20945.78       113.21632     -20832.564      46.093159      48.506476      213.27227    
    182500  -20943.497      111.96687     -20831.531      46.10213       48.506785      213.32804    
    182600  -20944.296      114.69109     -20829.605      46.112134      48.508602      213.38381    
    182700  -20940.696      114.03362     -20826.663      46.122641      48.510907      213.43958    
    182800  -20943.794      118.44099     -20825.353      46.131874      48.512073      213.49535    
    182900  -20946.589      116.47551     -20830.113      46.139023      48.513169      213.55113    
    183000  -20944.021      111.70269     -20832.318      46.142653      48.513576      213.6069     
    183100  -20946.682      113.88006     -20832.802      46.146576      48.513887      213.66267    
    183200  -20945.704      114.17918     -20831.525      46.153337      48.513058      213.71844    
    183300  -20943.857      115.6624      -20828.194      46.164588      48.513665      213.77421    
    183400  -20941.982      114.03967     -20827.942      46.181439      48.514589      213.82999    
    183500  -20944.591      111.66749     -20832.924      46.202797      48.515448      213.88576    
    183600  -20947.424      113.50636     -20833.918      46.223363      48.51694       213.94153    
    183700  -20945.776      112.94794     -20832.828      46.240326      48.517916      213.9973     
    183800  -20943.574      113.33171     -20830.242      46.25416       48.517835      214.05307    
    183900  -20943.727      115.29801     -20828.429      46.26432       48.51572       214.10885    
    184000  -20944.376      112.45724     -20831.919      46.270606      48.514298      214.16462    
    184100  -20947.81       112.6888      -20835.121      46.276929      48.511928      214.22039    
    184200  -20946.916      112.87018     -20834.046      46.289014      48.507872      214.27616    
    184300  -20946.06       115.24089     -20830.819      46.301364      48.50368       214.33193    
    184400  -20942.208      112.96123     -20829.246      46.312314      48.500651      214.38771    
    184500  -20941.501      111.59177     -20829.909      46.323138      48.495945      214.44348    
    184600  -20944.834      113.5292      -20831.305      46.330572      48.490011      214.49925    
    184700  -20945.169      113.80298     -20831.366      46.331263      48.482519      214.55502    
    184800  -20945.995      114.24646     -20831.749      46.327017      48.474191      214.61079    
    184900  -20946.894      114.24335     -20832.651      46.320162      48.463415      214.66657    
    185000  -20947.704      112.91586     -20834.789      46.312039      48.45268       214.72234    
    185100  -20950.089      112.87277     -20837.216      46.303371      48.443228      214.77811    
    185200  -20946.742      111.81216     -20834.93       46.29731       48.432834      214.83388    
    185300  -20945.46       114.13203     -20831.328      46.293708      48.422939      214.88965    
    185400  -20943.682      112.84252     -20830.84       46.288699      48.412021      214.94543    
    185500  -20946.173      114.72765     -20831.446      46.279697      48.400977      215.0012     
    185600  -20947.513      114.34414     -20833.169      46.266338      48.389347      215.05697    
    185700  -20949.416      113.03055     -20836.385      46.24814       48.377448      215.11274    
    185800  -20946.851      110.10334     -20836.747      46.226256      48.365605      215.16851    
    185900  -20947.435      115.19035     -20832.245      46.205364      48.3537        215.22429    
    186000  -20946.325      115.45643     -20830.869      46.188772      48.342185      215.28006    
    186100  -20943.497      112.24338     -20831.254      46.174419      48.332804      215.33583    
    186200  -20945.332      112.26325     -20833.069      46.162493      48.32339       215.3916     
    186300  -20947.906      112.02147     -20835.885      46.151627      48.312798      215.44738    
    186400  -20946.687      109.35649     -20837.331      46.140778      48.304376      215.50315    
    186500  -20947.137      113.89821     -20833.239      46.128809      48.295375      215.55892    
    186600  -20942.808      112.44086     -20830.367      46.119024      48.287014      215.61469    
    186700  -20944.599      114.43481     -20830.164      46.112108      48.279164      215.67046    
    186800  -20946.439      113.54581     -20832.893      46.106851      48.273353      215.72624    
    186900  -20947.679      112.2285      -20835.451      46.104989      48.268856      215.78201    
    187000  -20946.629      111.92551     -20834.703      46.107934      48.26408       215.83778    
    187100  -20943.986      114.42843     -20829.557      46.113813      48.261432      215.89355    
    187200  -20942.802      114.56946     -20828.232      46.119283      48.259155      215.94932    
    187300  -20943.841      113.80989     -20830.032      46.127945      48.257127      216.0051     
    187400  -20946.338      113.17185     -20833.166      46.139288      48.255497      216.06087    
    187500  -20945.475      110.93968     -20834.535      46.152274      48.256038      216.11664    
    187600  -20945.857      112.45054     -20833.407      46.166821      48.259216      216.17241    
    187700  -20942.9        113.94266     -20828.957      46.187009      48.261964      216.22818    
    187800  -20944.937      116.18269     -20828.754      46.20917       48.263584      216.28396    
    187900  -20945.593      114.88847     -20830.704      46.226507      48.266459      216.33973    
    188000  -20942.775      110.64944     -20832.126      46.241218      48.270886      216.3955     
    188100  -20945.624      113.0939      -20832.53       46.254793      48.271415      216.45127    
    188200  -20945.068      113.15319     -20831.915      46.266561      48.273478      216.50704    
    188300  -20942.617      114.53826     -20828.079      46.276411      48.27675       216.56282    
    188400  -20941.545      115.32302     -20826.222      46.289421      48.279239      216.61859    
    188500  -20943.948      114.69796     -20829.25       46.308104      48.280565      216.67436    
    188600  -20946.705      114.69509     -20832.009      46.326484      48.282467      216.73013    
    188700  -20945.198      112.66553     -20832.533      46.342319      48.286175      216.7859     
    188800  -20946.07       114.22182     -20831.848      46.355143      48.287604      216.84168    
    188900  -20945.819      116.13284     -20829.686      46.365216      48.287742      216.89745    
    189000  -20941.339      114.6099      -20826.729      46.369754      48.286883      216.95322    
    189100  -20943.592      116.30527     -20827.287      46.373524      48.287343      217.00899    
    189200  -20944.811      112.63753     -20832.174      46.379537      48.287115      217.06476    
    189300  -20946.326      113.18614     -20833.14       46.385749      48.287358      217.12054    
    189400  -20948.437      115.45181     -20832.985      46.39077       48.287715      217.17631    
    189500  -20944.315      111.94542     -20832.369      46.394429      48.287131      217.23208    
    189600  -20944.115      114.22439     -20829.891      46.395569      48.286306      217.28785    
    189700  -20942.556      114.18418     -20828.372      46.390904      48.28317       217.34362    
    189800  -20946.094      115.10737     -20830.987      46.382685      48.277952      217.3994     
    189900  -20948.758      114.3015      -20834.457      46.371503      48.269568      217.45517    
    190000  -20945.487      111.16958     -20834.318      46.359605      48.262798      217.51094    
    190100  -20946.191      113.71252     -20832.478      46.347582      48.256241      217.56671    
    190200  -20943.288      112.83489     -20830.453      46.340413      48.25112       217.62248    
    190300  -20944.16       113.71115     -20830.449      46.33437       48.243451      217.67826    
    190400  -20947.837      112.79719     -20835.04       46.328902      48.237256      217.73403    
    190500  -20947.666      110.96041     -20836.706      46.32027       48.232153      217.7898     
    190600  -20948.717      114.83128     -20833.886      46.307729      48.224857      217.84557    
    190700  -20944.389      113.6238      -20830.765      46.292507      48.216752      217.90134    
    190800  -20943.028      113.00594     -20830.022      46.275614      48.2084        217.95712    
    190900  -20944.116      111.91227     -20832.204      46.260918      48.202335      218.01289    
    191000  -20946.359      110.86401     -20835.495      46.251153      48.193377      218.06866    
    191100  -20947.643      110.55943     -20837.083      46.247266      48.187307      218.12443    
    191200  -20947.821      114.12687     -20833.694      46.24657       48.182478      218.1802     
    191300  -20942.198      112.14838     -20830.05       46.245911      48.17605       218.23598    
    191400  -20942.383      112.81232     -20829.57       46.245064      48.169887      218.29175    
    191500  -20946.116      114.45537     -20831.661      46.239846      48.162953      218.34752    
    191600  -20948.128      113.53241     -20834.595      46.231763      48.158009      218.40329    
    191700  -20949.434      114.95432     -20834.48       46.222201      48.151323      218.45907    
    191800  -20944.733      113.69424     -20831.039      46.216297      48.146822      218.51484    
    191900  -20945.299      117.68722     -20827.612      46.213945      48.143007      218.57061    
    192000  -20943.875      114.27565     -20829.6        46.214318      48.14034       218.62638    
    192100  -20944.121      111.85292     -20832.268      46.217446      48.137606      218.68215    
    192200  -20946.07       112.62278     -20833.447      46.219789      48.134151      218.73793    
    192300  -20944.814      112.20785     -20832.606      46.219002      48.131933      218.7937     
    192400  -20943.465      114.98746     -20828.477      46.215766      48.128583      218.84947    
    192500  -20944.72       117.7468      -20826.974      46.213259      48.127686      218.90524    
    192600  -20944.424      114.59274     -20829.831      46.212349      48.125709      218.96101    
    192700  -20945.25       113.4038      -20831.846      46.213967      48.124305      219.01679    
    192800  -20944.834      112.24311     -20832.591      46.216673      48.123542      219.07256    
    192900  -20944.833      112.78464     -20832.048      46.22266       48.124248      219.12833    
    193000  -20942.774      113.55684     -20829.217      46.229527      48.125114      219.1841     
    193100  -20942.179      115.94538     -20826.233      46.235631      48.124712      219.23987    
    193200  -20945.246      116.84445     -20828.401      46.242423      48.125664      219.29565    
    193300  -20943.88       111.64131     -20832.239      46.248166      48.127305      219.35142    
    193400  -20944.301      112.01839     -20832.282      46.253279      48.129536      219.40719    
    193500  -20946.281      115.22644     -20831.055      46.255812      48.130284      219.46296    
    193600  -20943.97       113.6527      -20830.317      46.260686      48.132085      219.51873    
    193700  -20943.875      112.88607     -20830.989      46.267924      48.135095      219.57451    
    193800  -20945.38       111.58465     -20833.795      46.275093      48.137602      219.63028    
    193900  -20946.546      111.2626      -20835.283      46.283007      48.139773      219.68605    
    194000  -20947.229      114.16644     -20833.063      46.289251      48.142449      219.74182    
    194100  -20946.149      117.19178     -20828.957      46.294038      48.146497      219.79759    
    194200  -20943.866      114.26156     -20829.604      46.296996      48.149575      219.85337    
    194300  -20944.275      112.31218     -20831.963      46.300033      48.153686      219.90914    
    194400  -20945.834      112.03327     -20833.801      46.301263      48.157667      219.96491    
    194500  -20945.351      111.36183     -20833.989      46.303576      48.163507      220.02068    
    194600  -20944.154      115.39498     -20828.759      46.307382      48.169984      220.07645    
    194700  -20944.403      116.67394     -20827.729      46.313533      48.1765        220.13223    
    194800  -20945.905      114.81732     -20831.087      46.319435      48.182898      220.188      
    194900  -20945.056      111.69988     -20833.356      46.325152      48.18887       220.24377    
    195000  -20945.884      112.60837     -20833.276      46.329602      48.196403      220.29954    
    195100  -20947.564      116.72309     -20830.841      46.331181      48.202789      220.35531    
    195200  -20942.411      115.58856     -20826.822      46.329792      48.209597      220.41109    
    195300  -20943.53       116.16237     -20827.368      46.325916      48.213831      220.46686    
    195400  -20944.021      111.47321     -20832.547      46.322208      48.217135      220.52263    
    195500  -20948.069      114.72289     -20833.346      46.318929      48.221994      220.5784     
    195600  -20944.885      111.98287     -20832.903      46.316013      48.227978      220.63417    
    195700  -20945.276      114.52411     -20830.752      46.315706      48.23313       220.68995    
    195800  -20944.179      115.36879     -20828.81       46.315244      48.237224      220.74572    
    195900  -20944.101      114.63277     -20829.469      46.311656      48.242843      220.80149    
    196000  -20945.075      111.00346     -20834.072      46.304632      48.246771      220.85726    
    196100  -20947.922      113.01241     -20834.91       46.29686       48.249498      220.91303    
    196200  -20944.324      111.46634     -20832.858      46.286872      48.250556      220.96881    
    196300  -20946.45       116.34362     -20830.106      46.27537       48.252362      221.02458    
    196400  -20945.496      115.45733     -20830.038      46.266538      48.254238      221.08035    
    196500  -20944.502      113.08608     -20831.416      46.259194      48.256402      221.13612    
    196600  -20944.875      112.68057     -20832.195      46.249332      48.25958       221.19189    
    196700  -20945.153      111.9396      -20833.214      46.238579      48.262297      221.24767    
    196800  -20944.064      110.80853     -20833.255      46.225511      48.262974      221.30344    
    196900  -20946.174      115.03801     -20831.136      46.209123      48.263691      221.35921    
    197000  -20943.2        114.25908     -20828.941      46.19095       48.265051      221.41498    
    197100  -20942.912      113.55277     -20829.359      46.176875      48.266827      221.47075    
    197200  -20946.725      113.24781     -20833.477      46.169215      48.269512      221.52653    
    197300  -20945.954      111.5813      -20834.373      46.16568       48.27321       221.5823     
    197400  -20946.941      113.61529     -20833.325      46.167173      48.279419      221.63807    
    197500  -20944.978      113.89908     -20831.079      46.170959      48.285659      221.69384    
    197600  -20940.797      113.87581     -20826.921      46.173385      48.293826      221.74962    
    197700  -20941.194      116.4708      -20824.723      46.16761       48.302587      221.80539    
    197800  -20945.345      116.09368     -20829.252      46.160202      48.312595      221.86116    
    197900  -20944.28       113.09549     -20831.184      46.153204      48.319296      221.91693    
    198000  -20946.934      113.5475      -20833.386      46.147346      48.327477      221.9727     
    198100  -20946.229      111.64193     -20834.587      46.142731      48.337317      222.02848    
    198200  -20947.189      113.35833     -20833.831      46.146206      48.348647      222.08425    
    198300  -20946.575      115.98693     -20830.588      46.154412      48.359956      222.14002    
    198400  -20944.01       115.35584     -20828.654      46.161017      48.372626      222.19579    
    198500  -20946.283      116.11578     -20830.167      46.166844      48.386311      222.25156    
    198600  -20946.739      111.37825     -20835.361      46.171126      48.396747      222.30734    
    198700  -20947.499      112.52333     -20834.975      46.173127      48.408248      222.36311    
    198800  -20948.907      116.16617     -20832.741      46.172685      48.420283      222.41888    
    198900  -20945.428      115.28953     -20830.139      46.176094      48.43323       222.47465    
    199000  -20947.467      117.69203     -20829.775      46.182637      48.444894      222.53042    
    199100  -20946.514      112.02982     -20834.484      46.190225      48.458383      222.5862     
    199200  -20948.383      112.03272     -20836.35       46.200888      48.474582      222.64197    
    199300  -20945.983      111.7333      -20834.25       46.211048      48.489391      222.69774    
    199400  -20944.834      113.58531     -20831.249      46.219024      48.504114      222.75351    
    199500  -20943.22       112.70694     -20830.514      46.223119      48.518109      222.80928    
    199600  -20947.275      115.65633     -20831.618      46.225228      48.53414       222.86506    
    199700  -20946.516      113.73964     -20832.776      46.225938      48.548313      222.92083    
    199800  -20944.37       111.20803     -20833.162      46.227429      48.563677      222.9766     
    199900  -20945.769      112.93515     -20832.833      46.23004       48.579279      223.03237    
    200000  -20944.862      113.0453      -20831.816      46.232919      48.59356       223.08814    
Loop time of 2981.23 on 8 procs for 200000 steps with 2928 atoms

Performance: 5.796 ns/day, 4.141 hours/ns, 67.086 timesteps/s
89.2% CPU use with 8 MPI tasks x 1 OpenMP threads

MPI task timing breakdown:
Section |  min time  |  avg time  |  max time  |%varavg| %total
---------------------------------------------------------------
Pair    | 572.21     | 1210.2     | 2741.3     |2370.5 | 40.59
Neigh   | 3.8068     | 13.414     | 32.356     | 295.4 |  0.45
Comm    | 133.5      | 893.62     | 2150.3     |2031.8 | 29.97
Output  | 0.93442    | 0.96996    | 1.2139     |   9.4 |  0.03
Modify  | 68.913     | 857.88     | 1651.1     |2691.8 | 28.78
Other   |            | 5.179      |            |       |  0.17

Nlocal:            366 ave        1447 max           0 min
Histogram: 6 0 0 0 0 0 0 0 0 2
Nghost:        1209.38 ave        3177 max           3 min
Histogram: 4 0 0 0 0 2 0 0 0 2
Neighs:              0 ave           0 max           0 min
Histogram: 8 0 0 0 0 0 0 0 0 0

Total # of neighbors = 0
Ave neighs/atom = 0
Neighbor list builds = 1440
Dangerous builds = 0
Total wall time: 0:49:41
