LAMMPS (23 Jun 2022 - Update 1)
OMP_NUM_THREADS environment is not set. Defaulting to 1 thread. (../comm.cpp:98)
  using 1 OpenMP thread(s) per MPI task
Reading data file ...
  orthogonal box = (-25.0214 -25.0214 -39.404249) to (25.0214 25.0214 76.989751)
  1 by 2 by 4 MPI processor grid
  reading atoms ...
  3024 atoms
  read_data CPU = 0.010 seconds
Reading airebo potential file CH.airebo with DATE: 2011-10-25
Reading airebo potential file CH.airebo with DATE: 2011-10-25
Reading airebo potential file CH.airebo with DATE: 2011-10-25
Neighbor list info ...
  update every 1 steps, delay 0 steps, check yes
  max neighbors/atom: 2000, page size: 100000
  master list distance cutoff = 13.2
  ghost atom cutoff = 13.2
  binsize = 6.6, bins = 8 8 18
  6 neighbor lists, perpetual/occasional/extra = 6 0 0
  (1) pair airebo, perpetual, skip from (5)
      attributes: full, newton on, ghost
      pair build: skip/ghost
      stencil: none
      bin: none
  (2) pair airebo, perpetual, skip from (5)
      attributes: full, newton on, ghost
      pair build: skip/ghost
      stencil: none
      bin: none
  (3) pair airebo, perpetual, skip from (5)
      attributes: full, newton on, ghost
      pair build: skip/ghost
      stencil: none
      bin: none
  (4) pair lj/cut, perpetual, skip from (6)
      attributes: half, newton on
      pair build: skip
      stencil: none
      bin: none
  (5) neighbor class addition, perpetual
      attributes: full, newton on, ghost
      pair build: full/bin/ghost
      stencil: full/ghost/bin/3d
      bin: standard
  (6) neighbor class addition, perpetual
      attributes: half, newton on
      pair build: half/bin/atomonly/newton
      stencil: half/bin/3d
      bin: standard
Setting up sd style minimization ...
  Unit style    : metal
  Current step  : 0
Per MPI rank memory allocation (min/avg/max) = 10.25 | 10.25 | 10.25 Mbytes
   Step          Temp          E_pair         E_mol          TotEng         Press     
         0   0             -20987.364      0             -20987.364      27882.702    
        14   0             -21946.82       0             -21946.82       631.53972    
Loop time of 0.128901 on 8 procs for 14 steps with 3024 atoms

99.4% CPU use with 8 MPI tasks x 1 OpenMP threads

Minimization stats:
  Stopping criterion = energy tolerance
  Energy initial, next-to-last, final = 
     -20987.3641320402  -21945.2476008186  -21946.8197421693
  Force two-norm initial, final = 775.07538 18.985723
  Force max component initial, final = 108.2718 2.6933237
  Final line search alpha, max atom move = 0.068300328 0.18395489
  Iterations, force evaluations = 14 23

MPI task timing breakdown:
Section |  min time  |  avg time  |  max time  |%varavg| %total
---------------------------------------------------------------
Pair    | 0.11772    | 0.12211    | 0.12604    |   0.8 | 94.73
Neigh   | 0          | 0          | 0          |   0.0 |  0.00
Comm    | 0.0020549  | 0.0056185  | 0.0095248  |   3.7 |  4.36
Output  | 0          | 0          | 0          |   0.0 |  0.00
Modify  | 0          | 0          | 0          |   0.0 |  0.00
Other   |            | 0.001172   |            |       |  0.91

Nlocal:            378 ave         390 max         366 min
Histogram: 4 0 0 0 0 0 0 0 0 4
Nghost:           1060 ave        1072 max        1048 min
Histogram: 4 0 0 0 0 0 0 0 0 4
Neighs:              0 ave           0 max           0 min
Histogram: 8 0 0 0 0 0 0 0 0 0

Total # of neighbors = 0
Ave neighs/atom = 0
Neighbor list builds = 0
Dangerous builds = 0
Setting up Verlet run ...
  Unit style    : metal
  Current step  : 14
  Time step     : 0.001
Per MPI rank memory allocation (min/avg/max) = 10.88 | 10.88 | 10.88 Mbytes
   Step          Temp          E_pair         E_mol          TotEng         Press          Volume    
        14   300           -21946.82       0             -21829.594      1061.1052      291483.38    
Loop time of 2.11287e-06 on 8 procs for 0 steps with 3024 atoms

47.3% CPU use with 8 MPI tasks x 1 OpenMP threads

MPI task timing breakdown:
Section |  min time  |  avg time  |  max time  |%varavg| %total
---------------------------------------------------------------
Pair    | 0          | 0          | 0          |   0.0 |  0.00
Neigh   | 0          | 0          | 0          |   0.0 |  0.00
Comm    | 0          | 0          | 0          |   0.0 |  0.00
Output  | 0          | 0          | 0          |   0.0 |  0.00
Modify  | 0          | 0          | 0          |   0.0 |  0.00
Other   |            | 2.113e-06  |            |       |100.00

Nlocal:            378 ave         382 max         374 min
Histogram: 2 0 0 2 0 0 2 0 0 2
Nghost:           1062 ave        1066 max        1058 min
Histogram: 2 0 0 2 0 0 2 0 0 2
Neighs:              0 ave           0 max           0 min
Histogram: 8 0 0 0 0 0 0 0 0 0

Total # of neighbors = 0
Ave neighs/atom = 0
Neighbor list builds = 0
Dangerous builds = 0
Setting up Verlet run ...
  Unit style    : metal
  Current step  : 0
  Time step     : 0.001
Per MPI rank memory allocation (min/avg/max) = 13.66 | 13.66 | 13.66 Mbytes
   Step         PotEng         KinEng         TotEng           Lx             Ly             Lz      
         0  -21946.82       117.22603     -21829.594      50.0428        50.0428        116.394      
       100  -21927.232      107.87307     -21819.359      50.048764      50.030301      116.4522     
       200  -21938.203      120.68279     -21817.52       50.046972      50.004052      116.51039    
       300  -21932.892      113.53976     -21819.352      50.069313      49.991998      116.56859    
       400  -21936.715      120.53943     -21816.176      50.074252      49.967285      116.62679    
       500  -21924.419      115.39631     -21809.023      50.095992      49.955744      116.68499    
       600  -21926.151      124.09643     -21802.055      50.100912      49.945521      116.74318    
       700  -21914.77       118.85663     -21795.913      50.101347      49.953334      116.80138    
       800  -21908.047      117.57486     -21790.472      50.098787      49.974583      116.85958    
       900  -21900.395      114.27371     -21786.122      50.071796      49.988386      116.91777    
      1000  -21906.425      123.51281     -21782.912      50.055301      50.007163      116.97597    
      1100  -21913.484      124.72978     -21788.754      50.031687      50.018363      117.03417    
      1200  -21916.085      119.48317     -21796.601      50.017944      50.031096      117.09236    
      1300  -21912.111      111.05125     -21801.059      50.001034      50.03802       117.15056    
      1400  -21903.763      108.43828     -21795.325      49.98933       50.050076      117.20876    
      1500  -21907.661      120.40701     -21787.254      49.980278      50.062762      117.26695    
      1600  -21898.449      114.75928     -21783.69       49.968737      50.066415      117.32515    
      1700  -21893.615      116.89803     -21776.717      49.967435      50.071639      117.38335    
      1800  -21893.711      120.50666     -21773.205      49.965008      50.069875      117.44155    
      1900  -21895.598      118.33739     -21777.261      49.966784      50.067018      117.49974    
      2000  -21896.832      115.39658     -21781.435      49.968059      50.059897      117.55794    
      2100  -21901.096      118.48086     -21782.615      49.969736      50.053986      117.61614    
      2200  -21898.886      117.22664     -21781.659      49.972282      50.050592      117.67433    
      2300  -21897.202      116.33015     -21780.871      49.970473      50.045586      117.73253    
      2400  -21895.975      115.65803     -21780.317      49.971098      50.044403      117.79073    
      2500  -21897.598      121.31817     -21776.28       49.967262      50.041127      117.84893    
      2600  -21890.957      115.58654     -21775.37       49.966863      50.040557      117.90712    
      2700  -21895.685      120.13858     -21775.547      49.966287      50.040558      117.96532    
      2800  -21892.571      113.02819     -21779.543      49.963606      50.039701      118.02352    
      2900  -21888.551      112.03321     -21776.517      49.960921      50.04084       118.08171    
      3000  -21887.817      116.3823      -21771.435      49.957313      50.040269      118.13991    
      3100  -21888.336      120.02934     -21768.306      49.954522      50.041482      118.19811    
      3200  -21890.632      120.7696      -21769.862      49.948596      50.039326      118.2563     
      3300  -21889.924      117.09643     -21772.828      49.945663      50.03951       118.3145     
      3400  -21888.268      116.21324     -21772.055      49.941421      50.03944       118.3727     
      3500  -21885.215      116.90645     -21768.309      49.935703      50.038035      118.43089    
      3600  -21879.827      115.04139     -21764.786      49.935271      50.040413      118.48909    
      3700  -21879.747      116.52205     -21763.225      49.931802      50.036466      118.54729    
      3800  -21881.622      116.63325     -21764.989      49.93424       50.034367      118.60549    
      3900  -21882.577      116.10509     -21766.472      49.932174      50.028789      118.66368    
      4000  -21878.514      114.92377     -21763.591      49.931327      50.025312      118.72188    
      4100  -21874.521      115.99533     -21758.526      49.931091      50.023363      118.78008    
      4200  -21875.529      118.55048     -21756.978      49.928822      50.019635      118.83827    
      4300  -21876.969      118.5234      -21758.445      49.929965      50.018612      118.89647    
      4400  -21874.662      114.56686     -21760.095      49.927472      50.014942      118.95467    
      4500  -21875.67       117.41378     -21758.256      49.927594      50.012626      119.01287    
      4600  -21871.67       116.84183     -21754.828      49.927189      50.009076      119.07106    
      4700  -21870.32       119.25057     -21751.07       49.926218      50.004859      119.12926    
      4800  -21873.037      122.62039     -21750.417      49.926562      50.002484      119.18746    
      4900  -21871.502      118.11701     -21753.385      49.92204       49.996624      119.24565    
      5000  -21868.732      116.85829     -21751.873      49.923141      49.994662      119.30385    
      5100  -21865.223      117.13293     -21748.09       49.921457      49.989877      119.36205    
      5200  -21861.789      118.71836     -21743.07       49.920997      49.985614      119.42024    
      5300  -21858.844      117.64846     -21741.195      49.92137       49.981884      119.47844    
      5400  -21859.981      117.02763     -21742.953      49.9179        49.976657      119.53664    
      5500  -21858.05       115.29076     -21742.759      49.917701      49.976153      119.59484    
      5600  -21856.231      116.08156     -21740.149      49.912894      49.973837      119.65303    
      5700  -21855.638      117.25109     -21738.387      49.908306      49.972811      119.71123    
      5800  -21855.46       117.53851     -21737.921      49.905487      49.972515      119.76943    
      5900  -21854.815      113.60734     -21741.208      49.902354      49.969857      119.82762    
      6000  -21854.558      114.9903      -21739.567      49.901429      49.96754       119.88582    
      6100  -21852.369      115.77786     -21736.591      49.899155      49.963411      119.94402    
      6200  -21849.955      116.4094      -21733.546      49.895496      49.960424      120.00221    
      6300  -21848.179      119.87621     -21728.303      49.891907      49.958226      120.06041    
      6400  -21845.748      121.34125     -21724.407      49.887973      49.956388      120.11861    
      6500  -21844.198      118.68841     -21725.51       49.884555      49.955916      120.17681    
      6600  -21840.028      115.21408     -21724.814      49.879461      49.954248      120.235      
      6700  -21839.742      117.12514     -21722.617      49.875601      49.954215      120.2932     
      6800  -21836.394      118.47258     -21717.922      49.868473      49.95285       120.3514     
      6900  -21832.306      118.8649      -21713.441      49.863537      49.952896      120.40959    
      7000  -21833.55       120.14314     -21713.407      49.857583      49.95324       120.46779    
      7100  -21831.102      114.19497     -21716.907      49.850197      49.951799      120.52599    
      7200  -21832.903      118.51772     -21714.386      49.845059      49.952292      120.58418    
      7300  -21829.433      119.10403     -21710.329      49.837782      49.950812      120.64238    
      7400  -21826.43       118.40097     -21708.029      49.83423       49.952291      120.70058    
      7500  -21822.804      114.7496      -21708.054      49.827895      49.951176      120.75877    
      7600  -21822.439      115.10337     -21707.336      49.82232       49.948837      120.81697    
      7700  -21820.831      116.61246     -21704.219      49.819459      49.946749      120.87517    
      7800  -21815.916      117.64322     -21698.273      49.813609      49.941806      120.93337    
      7900  -21813.284      117.93906     -21695.345      49.811402      49.939147      120.99156    
      8000  -21812.579      118.56008     -21694.019      49.807526      49.935765      121.04976    
      8100  -21813.852      116.50402     -21697.348      49.802787      49.932345      121.10796    
      8200  -21810.63       115.02046     -21695.61       49.799208      49.929712      121.16615    
      8300  -21808.915      118.12272     -21690.792      49.794077      49.925429      121.22435    
      8400  -21804.111      118.17562     -21685.935      49.791466      49.922823      121.28255    
      8500  -21803.953      118.61929     -21685.334      49.787256      49.919377      121.34074    
      8600  -21802.006      116.27953     -21685.727      49.782565      49.917386      121.39894    
      8700  -21798.261      115.55099     -21682.71       49.776173      49.916289      121.45714    
      8800  -21795.15       116.85037     -21678.299      49.768767      49.915385      121.51534    
      8900  -21793.462      118.49727     -21674.965      49.762228      49.91579       121.57353    
      9000  -21792.386      118.94047     -21673.445      49.753614      49.914118      121.63173    
      9100  -21788.851      112.9795      -21675.871      49.747744      49.913917      121.68993    
      9200  -21786.797      114.42883     -21672.368      49.740921      49.911197      121.74812    
      9300  -21785.354      118.22931     -21667.124      49.735105      49.908106      121.80632    
      9400  -21780.69       117.18738     -21663.502      49.730381      49.905023      121.86452    
      9500  -21778.917      117.63446     -21661.283      49.724356      49.900646      121.92272    
      9600  -21779.071      116.81259     -21662.259      49.720282      49.897803      121.98091    
      9700  -21775.338      113.09877     -21662.239      49.714349      49.893385      122.03911    
      9800  -21771.655      115.41624     -21656.239      49.710016      49.889401      122.09731    
      9900  -21767.438      116.22718     -21651.21       49.705968      49.885464      122.1555     
     10000  -21766.703      119.18458     -21647.518      49.699154      49.880155      122.2137     
     10100  -21765.075      119.28939     -21645.785      49.694764      49.877676      122.2719     
     10200  -21760.301      113.18808     -21647.112      49.687936      49.873739      122.33009    
     10300  -21759.967      116.29187     -21643.675      49.682014      49.86971       122.38829    
     10400  -21756.084      117.94946     -21638.135      49.676843      49.865939      122.44649    
     10500  -21751.704      116.31884     -21635.385      49.670392      49.861724      122.50468    
     10600  -21748.242      114.09019     -21634.151      49.663377      49.858614      122.56288    
     10700  -21750.348      118.23371     -21632.115      49.654672      49.855807      122.62108    
     10800  -21746.166      117.88385     -21628.282      49.64572       49.854291      122.67928    
     10900  -21743.379      120.55382     -21622.825      49.636428      49.85206       122.73747    
     11000  -21738.842      119.17494     -21619.667      49.628036      49.849333      122.79567    
     11100  -21736.39       116.88504     -21619.505      49.619503      49.845429      122.85387    
     11200  -21737.144      117.26432     -21619.88       49.611953      49.841722      122.91206    
     11300  -21733.152      116.45866     -21616.693      49.60493       49.837979      122.97026    
     11400  -21727.917      117.40048     -21610.516      49.59701       49.832426      123.02846    
     11500  -21726.96       121.32638     -21605.634      49.589261      49.827891      123.08666    
     11600  -21719.765      116.74299     -21603.022      49.581014      49.823585      123.14485    
     11700  -21718.207      116.48666     -21601.72       49.571333      49.819397      123.20305    
     11800  -21714.475      113.2947      -21601.181      49.562611      49.816798      123.26125    
     11900  -21713.557      115.26278     -21598.294      49.551685      49.812486      123.31944    
     12000  -21710.904      118.65121     -21592.253      49.542283      49.810178      123.37764    
     12100  -21705.485      118.87708     -21586.608      49.532383      49.806684      123.43584    
     12200  -21703.262      118.74329     -21584.518      49.522382      49.802346      123.49403    
     12300  -21701.184      116.66916     -21584.515      49.513437      49.797964      123.55223    
     12400  -21700.271      115.17346     -21585.097      49.503938      49.792076      123.61043    
     12500  -21698.21       116.46141     -21581.749      49.494735      49.786946      123.66863    
     12600  -21691.737      114.9776      -21576.76       49.485081      49.782121      123.72682    
     12700  -21689.439      118.01493     -21571.424      49.473908      49.776938      123.78502    
     12800  -21686.703      119.03286     -21567.67       49.462822      49.773289      123.84322    
     12900  -21683.789      118.57685     -21565.212      49.450379      49.768928      123.90141    
     13000  -21679.486      117.30219     -21562.184      49.438986      49.764912      123.95961    
     13100  -21672.396      116.73594     -21555.66       49.426692      49.75915       124.01781    
     13200  -21668.892      119.25809     -21549.634      49.415839      49.753012      124.076      
     13300  -21667.089      119.09796     -21547.991      49.405565      49.746809      124.1342     
     13400  -21666.683      118.08654     -21548.597      49.393779      49.739731      124.1924     
     13500  -21661.465      115.49628     -21545.968      49.382465      49.734892      124.2506     
     13600  -21655.834      114.96465     -21540.869      49.368483      49.729464      124.30879    
     13700  -21654.494      118.6753      -21535.819      49.354534      49.724893      124.36699    
     13800  -21648.638      117.99164     -21530.646      49.34041       49.719685      124.42519    
     13900  -21647.221      120.47357     -21526.747      49.325681      49.71327       124.48338    
     14000  -21644.376      117.39462     -21526.981      49.31142       49.707527      124.54158    
     14100  -21642.61       115.80088     -21526.809      49.296683      49.702352      124.59978    
     14200  -21639.715      115.77105     -21523.944      49.281709      49.696912      124.65797    
     14300  -21636.948      117.84378     -21519.104      49.267279      49.691846      124.71617    
     14400  -21631.122      119.4537      -21511.668      49.252021      49.685157      124.77437    
     14500  -21627.133      118.73894     -21508.394      49.236154      49.678061      124.83257    
     14600  -21624.76       118.90481     -21505.856      49.220153      49.670514      124.89076    
     14700  -21620.468      117.78559     -21502.682      49.204069      49.663719      124.94896    
     14800  -21618.671      119.39147     -21499.279      49.188376      49.655522      125.00716    
     14900  -21613.972      116.6403      -21497.332      49.173519      49.646593      125.06535    
     15000  -21608.661      114.37949     -21494.281      49.159298      49.636251      125.12355    
     15100  -21607.288      121.03806     -21486.25       49.145762      49.624705      125.18175    
     15200  -21599.818      118.59885     -21481.219      49.132018      49.613462      125.23994    
     15300  -21597.058      116.94334     -21480.114      49.116964      49.602522      125.29814    
     15400  -21594.383      115.71968     -21478.663      49.101304      49.5933        125.35634    
     15500  -21589.605      115.16594     -21474.439      49.083218      49.582837      125.41454    
     15600  -21583.836      117.45649     -21466.38       49.064771      49.574666      125.47273    
     15700  -21580.06       119.90285     -21460.157      49.045205      49.566215      125.53093    
     15800  -21575.521      117.33606     -21458.185      49.024681      49.557954      125.58913    
     15900  -21576.645      118.97935     -21457.666      49.004804      49.549692      125.64732    
     16000  -21574.809      118.66564     -21456.144      48.983904      49.54023       125.70552    
     16100  -21567.252      114.16476     -21453.087      48.963139      49.531         125.76372    
     16200  -21565.859      118.85145     -21447.007      48.942172      49.521916      125.82191    
     16300  -21557.091      118.31105     -21438.78       48.920751      49.512335      125.88011    
     16400  -21554.19       118.51654     -21435.673      48.898752      49.501842      125.93831    
     16500  -21554.261      119.53119     -21434.73       48.877532      49.491733      125.9965     
     16600  -21547.249      113.5798      -21433.669      48.855814      49.480115      126.0547     
     16700  -21546.502      115.95546     -21430.546      48.834358      49.469015      126.1129     
     16800  -21540.347      115.84434     -21424.503      48.812797      49.457156      126.1711     
     16900  -21536.875      119.53939     -21417.336      48.791473      49.44445       126.22929    
     17000  -21529.523      118.71383     -21410.809      48.769818      49.430156      126.28749    
     17100  -21527.971      122.17196     -21405.799      48.749067      49.41746       126.34569    
     17200  -21524.045      117.92912     -21406.116      48.726666      49.402732      126.40388    
     17300  -21523.127      117.26691     -21405.86       48.705298      49.390536      126.46208    
     17400  -21520.068      117.10166     -21402.966      48.682804      49.377015      126.52028    
     17500  -21515.196      118.41311     -21396.783      48.660335      49.363672      126.57847    
     17600  -21505.691      116.34011     -21389.351      48.638334      49.350348      126.63667    
     17700  -21502.905      118.52974     -21384.375      48.61475       49.333401      126.69487    
     17800  -21501.621      119.19239     -21382.429      48.593613      49.319105      126.75307    
     17900  -21495.959      116.65661     -21379.302      48.569801      49.302631      126.81126    
     18000  -21490.926      115.73616     -21375.19       48.546713      49.289038      126.86946    
     18100  -21488.017      117.49683     -21370.52       48.522242      49.275661      126.92766    
     18200  -21482.576      115.93265     -21366.644      48.496153      49.262147      126.98585    
     18300  -21477.472      114.06175     -21363.41       48.470238      49.250341      127.04405    
     18400  -21474.602      116.48135     -21358.12       48.44326       49.237536      127.10225    
     18500  -21470.955      119.42558     -21351.53       48.416004      49.225587      127.16045    
     18600  -21466.663      119.99266     -21346.67       48.389534      49.21465       127.21864    
     18700  -21461.307      115.68679     -21345.621      48.362293      49.202202      127.27684    
     18800  -21461.093      116.20167     -21344.892      48.336651      49.190631      127.33504    
     18900  -21455.081      114.67127     -21340.41       48.310928      49.176737      127.39323    
     19000  -21449.464      116.62475     -21332.839      48.28721       49.162679      127.45143    
     19100  -21442.741      116.00746     -21326.733      48.265007      49.147273      127.50963    
     19200  -21439.523      116.67817     -21322.845      48.242271      49.128861      127.56782    
     19300  -21437.754      117.86929     -21319.885      48.222023      49.113797      127.62602    
     19400  -21431.048      114.74742     -21316.3        48.198871      49.095237      127.68422    
     19500  -21426.832      115.95367     -21310.878      48.177406      49.080617      127.74242    
     19600  -21422.492      119.95945     -21302.533      48.154988      49.064397      127.80061    
     19700  -21416.898      118.51502     -21298.383      48.132082      49.047728      127.85881    
     19800  -21413.73       116.49188     -21297.238      48.11147       49.034372      127.91701    
     19900  -21410.796      116.9847      -21293.811      48.088101      49.017894      127.9752     
     20000  -21406.605      118.27054     -21288.334      48.067011      49.005698      128.0334     
     20100  -21399.033      120.02231     -21279.01       48.044575      48.992115      128.0916     
     20200  -21395.526      121.32447     -21274.202      48.022087      48.978378      128.14979    
     20300  -21390.889      117.79933     -21273.089      48.001063      48.967174      128.20799    
     20400  -21387.815      117.09285     -21270.722      47.977361      48.953262      128.26619    
     20500  -21382.879      115.90996     -21266.969      47.955474      48.943093      128.32439    
     20600  -21377.996      116.40069     -21261.595      47.932638      48.931837      128.38258    
     20700  -21371.595      117.7358      -21253.859      47.909839      48.920016      128.44078    
     20800  -21366.099      118.90965     -21247.189      47.88945       48.909532      128.49898    
     20900  -21363.393      117.8831      -21245.51       47.868946      48.894666      128.55717    
     21000  -21361.301      116.88951     -21244.411      47.851355      48.881277      128.61537    
     21100  -21357.192      117.84064     -21239.351      47.83456       48.867444      128.67357    
     21200  -21353.793      120.58867     -21233.204      47.817631      48.852744      128.73176    
     21300  -21343.483      117.7928      -21225.69       47.80232       48.841604      128.78996    
     21400  -21337.354      118.93399     -21218.42       47.784176      48.82756       128.84816    
     21500  -21333.701      117.55355     -21216.147      47.767895      48.816632      128.90636    
     21600  -21331.094      115.01704     -21216.077      47.750868      48.804387      128.96455    
     21700  -21326.546      115.9619      -21210.584      47.734661      48.793124      129.02275    
     21800  -21321.599      118.38577     -21203.213      47.719818      48.783167      129.08095    
     21900  -21314.021      117.55501     -21196.466      47.704081      48.770875      129.13914    
     22000  -21310.771      118.8176      -21191.953      47.690673      48.761167      129.19734    
     22100  -21307.259      115.46346     -21191.795      47.675516      48.749744      129.25554    
     22200  -21302.405      114.3398      -21188.065      47.66042       48.738748      129.31373    
     22300  -21297.651      116.58209     -21181.069      47.646533      48.729193      129.37193    
     22400  -21292.155      118.67779     -21173.477      47.631682      48.718385      129.43013    
     22500  -21285.705      117.03105     -21168.674      47.619503      48.711232      129.48833    
     22600  -21280.887      117.29616     -21163.591      47.605371      48.702435      129.54652    
     22700  -21277.196      118.11113     -21159.085      47.591405      48.693658      129.60472    
     22800  -21270.528      115.38108     -21155.147      47.578577      48.685278      129.66292    
     22900  -21268.482      115.05998     -21153.423      47.565811      48.67508       129.72111    
     23000  -21265.575      114.99403     -21150.581      47.555151      48.666689      129.77931    
     23100  -21258.308      113.91658     -21144.392      47.543321      48.657103      129.83751    
     23200  -21251.986      116.75116     -21135.235      47.532559      48.649167      129.8957     
     23300  -21245.531      116.3407      -21129.19       47.522553      48.642115      129.9539     
     23400  -21241.076      117.49498     -21123.581      47.510337      48.632656      130.0121     
     23500  -21236.155      117.91323     -21118.242      47.501199      48.625852      130.07029    
     23600  -21230.628      116.85279     -21113.775      47.490246      48.616215      130.12849    
     23700  -21229.123      117.74759     -21111.375      47.481529      48.608708      130.18669    
     23800  -21220.953      113.14701     -21107.806      47.472486      48.600597      130.24489    
     23900  -21217.746      117.74769     -21099.999      47.463334      48.592525      130.30308    
     24000  -21212.724      121.13146     -21091.592      47.455837      48.586445      130.36128    
     24100  -21206.402      118.91951     -21087.482      47.446257      48.578733      130.41948    
     24200  -21202.285      117.74491     -21084.54       47.437986      48.573041      130.47767    
     24300  -21199.436      117.95935     -21081.476      47.429606      48.567508      130.53587    
     24400  -21191.225      114.68321     -21076.542      47.419889      48.560694      130.59407    
     24500  -21186.646      116.41194     -21070.234      47.412166      48.555844      130.65226    
     24600  -21181.067      116.58359     -21064.484      47.403541      48.549405      130.71046    
     24700  -21175.519      116.88416     -21058.635      47.395497      48.542946      130.76866    
     24800  -21169.866      117.71753     -21052.149      47.388064      48.537852      130.82686    
     24900  -21163.977      118.84943     -21045.127      47.379187      48.532086      130.88505    
     25000  -21158.972      120.77704     -21038.195      47.371285      48.52746       130.94325    
     25100  -21152.073      117.16922     -21034.904      47.362344      48.52189       131.00145    
     25200  -21152.205      118.49811     -21033.707      47.354173      48.517072      131.05964    
     25300  -21146.845      116.89609     -21029.949      47.346627      48.51277       131.11784    
     25400  -21140.316      116.07212     -21024.244      47.339013      48.507534      131.17604    
     25500  -21133.889      118.69989     -21015.189      47.332996      48.503074      131.23424    
     25600  -21128.393      120.9964      -21007.397      47.325662      48.497676      131.29243    
     25700  -21121.136      117.89175     -21003.245      47.319099      48.493647      131.35063    
     25800  -21119.282      120.35531     -20998.927      47.311023      48.488683      131.40883    
     25900  -21112.411      118.01095     -20994.401      47.302936      48.483843      131.46702    
     26000  -21107.925      117.19138     -20990.733      47.296142      48.479851      131.52522    
     26100  -21105.811      118.28851     -20987.522      47.288423      48.474851      131.58342    
     26200  -21095.89       114.83252     -20981.057      47.283012      48.471303      131.64161    
     26300  -21091.227      119.14471     -20972.083      47.277221      48.466893      131.69981    
     26400  -21083.634      118.11469     -20965.52       47.270929      48.461848      131.75801    
     26500  -21077.697      116.6816      -20961.015      47.26644       48.457295      131.8162     
     26600  -21075.893      115.59932     -20960.294      47.260619      48.451627      131.8744     
     26700  -21070.457      114.5828      -20955.874      47.255267      48.446056      131.9326     
     26800  -21064.906      116.82775     -20948.078      47.250328      48.441468      131.9908     
     26900  -21058.696      118.70144     -20939.995      47.243511      48.436532      132.04899    
     27000  -21049.512      115.85317     -20933.659      47.23709       48.43304       132.10719    
     27100  -21047.117      119.1678      -20927.949      47.229517      48.428636      132.16539    
     27200  -21038.817      117.89477     -20920.923      47.222667      48.425641      132.22358    
     27300  -21031.639      117.25279     -20914.386      47.21526       48.4221        132.28178    
     27400  -21029.301      117.16957     -20912.131      47.208029      48.417755      132.33998    
     27500  -21024.647      115.75521     -20908.892      47.202387      48.414166      132.39818    
     27600  -21019.187      117.48091     -20901.706      47.195964      48.410342      132.45637    
     27700  -21011.867      117.99423     -20893.873      47.190386      48.407032      132.51457    
     27800  -21007.412      119.62435     -20887.788      47.184367      48.403158      132.57277    
     27900  -20999.076      115.88992     -20883.186      47.179321      48.399821      132.63096    
     28000  -20997.032      119.03773     -20877.994      47.173717      48.396474      132.68916    
     28100  -20990.715      118.31977     -20872.395      47.167317      48.392914      132.74736    
     28200  -20984.171      117.03029     -20867.141      47.161491      48.389531      132.80555    
     28300  -20982.685      119.03932     -20863.646      47.15535       48.38522       132.86375    
     28400  -20975.5        115.6616      -20859.838      47.150065      48.380942      132.92195    
     28500  -20967.95       116.1511      -20851.799      47.144842      48.376976      132.98014    
     28600  -20961.804      119.31129     -20842.492      47.13802       48.371947      133.03834    
     28700  -20955.849      119.10237     -20836.747      47.133157      48.36828       133.09654    
     28800  -20950.194      118.10919     -20832.085      47.126925      48.36362       133.15474    
     28900  -20943.612      115.16906     -20828.443      47.120752      48.359608      133.21293    
     29000  -20940.407      115.23042     -20825.176      47.114735      48.356194      133.27113    
     29100  -20935.057      117.15029     -20817.907      47.107321      48.352072      133.32933    
     29200  -20925.114      116.94079     -20808.173      47.10232       48.349816      133.38752    
     29300  -20920.35       118.77357     -20801.577      47.095296      48.345944      133.44572    
     29400  -20912.672      116.27371     -20796.399      47.088599      48.342281      133.50392    
     29500  -20907.629      115.09479     -20792.534      47.083408      48.339722      133.56212    
     29600  -20905.648      114.68459     -20790.963      47.076605      48.335531      133.62031    
     29700  -20900.352      116.23788     -20784.114      47.071072      48.332948      133.67851    
     29800  -20891.791      116.58054     -20775.21       47.064809      48.330304      133.73671    
     29900  -20885.939      117.20055     -20768.738      47.058335      48.327402      133.7949     
     30000  -20880.561      118.21609     -20762.345      47.052754      48.324744      133.8531     
     30100  -20872.351      117.91529     -20754.436      47.045875      48.320594      133.9113     
     30200  -20863.699      118.50502     -20745.194      47.040233      48.316506      133.96949    
     30300  -20861.165      119.67073     -20741.494      47.03487       48.311449      134.02769    
     30400  -20857.288      117.2877      -20740          47.029583      48.305451      134.08589    
     30500  -20851.013      115.99854     -20735.014      47.02638       48.300941      134.14409    
     30600  -20845.459      116.48929     -20728.969      47.020442      48.295848      134.20228    
     30700  -20839.803      118.87784     -20720.925      47.014209      48.291506      134.26048    
     30800  -20827.536      115.28458     -20712.251      47.008352      48.288127      134.31868    
     30900  -20823.511      119.34742     -20704.164      47.000353      48.283639      134.37687    
     31000  -20819.103      119.34218     -20699.761      46.994874      48.281344      134.43507    
     31100  -20814.473      115.61277     -20698.86       46.987935      48.277377      134.49327    
     31200  -20809.512      115.35463     -20694.157      46.98208       48.274104      134.55146    
     31300  -20801.604      115.24431     -20686.36       46.976223      48.270869      134.60966    
     31400  -20791.88       114.75092     -20677.129      46.969305      48.266642      134.66786    
     31500  -20790.959      120.28121     -20670.678      46.962594      48.263121      134.72606    
     31600  -20784.256      117.895       -20666.361      46.954902      48.258807      134.78425    
     31700  -20778.268      116.45453     -20661.814      46.948157      48.254131      134.84245    
     31800  -20772.414      116.15956     -20656.255      46.942357      48.249152      134.90065    
     31900  -20766.573      116.84904     -20649.724      46.936155      48.24319       134.95884    
     32000  -20758.411      116.91363     -20641.497      46.93198       48.238117      135.01704    
     32100  -20747.98       115.67116     -20632.309      46.926559      48.232322      135.07524    
     32200  -20743.725      119.08401     -20624.641      46.921152      48.226758      135.13343    
     32300  -20741.467      117.7649      -20623.703      46.916313      48.222876      135.19163    
     32400  -20737.943      117.41328     -20620.53       46.908548      48.218149      135.24983    
     32500  -20730.564      115.31087     -20615.253      46.90228       48.215437      135.30802    
     32600  -20724.972      117.75311     -20607.219      46.894031      48.212215      135.36622    
     32700  -20718.272      119.89664     -20598.375      46.886047      48.2089        135.42442    
     32800  -20710.321      116.9521      -20593.368      46.879613      48.206211      135.48262    
     32900  -20707.081      115.47063     -20591.61       46.871363      48.201194      135.54081    
     33000  -20701.026      114.49507     -20586.531      46.866         48.196914      135.59901    
     33100  -20695.197      117.12741     -20578.07       46.86021       48.190745      135.65721    
     33200  -20688.912      119.59962     -20569.313      46.854859      48.183938      135.7154     
     33300  -20679.851      118.04583     -20561.805      46.84981       48.178316      135.7736     
     33400  -20674.282      118.72086     -20555.561      46.842358      48.172332      135.8318     
     33500  -20669.465      116.82389     -20552.641      46.836698      48.168712      135.88999    
     33600  -20665.296      116.06558     -20549.23       46.828904      48.1641        135.94819    
     33700  -20657.266      115.57204     -20541.694      46.821135      48.159692      136.00639    
     33800  -20650.467      118.50158     -20531.965      46.8142        48.155743      136.06459    
     33900  -20643.756      118.31571     -20525.44       46.805135      48.150058      136.12278    
     34000  -20636.661      116.94116     -20519.72       46.799109      48.146251      136.18098    
     34100  -20629.531      115.56031     -20513.97       46.791755      48.141252      136.23918    
     34200  -20624.65       117.34055     -20507.309      46.784108      48.136208      136.29737    
     34300  -20617.01       117.57245     -20499.438      46.77767       48.132207      136.35557    
     34400  -20609.761      117.48034     -20492.281      46.768892      48.126649      136.41377    
     34500  -20603.175      115.93552     -20487.239      46.762093      48.122886      136.47197    
     34600  -20600.054      116.25784     -20483.796      46.75393       48.118438      136.53016    
     34700  -20594.977      115.21292     -20479.764      46.745559      48.113036      136.58836    
     34800  -20587.877      115.7933      -20472.084      46.739505      48.108355      136.64656    
     34900  -20578.68       117.59739     -20461.083      46.731263      48.101517      136.70475    
     35000  -20572.322      118.17611     -20454.146      46.724942      48.095892      136.76295    
     35100  -20566.342      117.03035     -20449.311      46.718561      48.090475      136.82115    
     35200  -20562.195      116.2207      -20445.974      46.710103      48.083904      136.87934    
     35300  -20556.608      114.85578     -20441.752      46.704192      48.079546      136.93754    
     35400  -20546.484      112.93798     -20433.546      46.695329      48.073836      136.99574    
     35500  -20541.399      118.88423     -20422.514      46.686661      48.069476      137.05394    
     35600  -20533.517      118.4693      -20415.047      46.678606      48.06607       137.11213    
     35700  -20527.894      117.82914     -20410.065      46.668187      48.060852      137.17033    
     35800  -20523.494      116.05188     -20407.442      46.660205      48.056941      137.22853    
     35900  -20516.942      115.25027     -20401.691      46.650896      48.05134       137.28672    
     36000  -20511.12       117.48934     -20393.631      46.64258       48.045151      137.34492    
     36100  -20503.972      118.61329     -20385.359      46.636144      48.039516      137.40312    
     36200  -20497.04       117.50704     -20379.533      46.627779      48.032649      137.46131    
     36300  -20494.549      115.19729     -20379.352      46.620379      48.026637      137.51951    
     36400  -20487.542      115.01944     -20372.523      46.612559      48.020288      137.57771    
     36500  -20478.269      116.13894     -20362.13       46.604465      48.014627      137.63591    
     36600  -20471.088      117.88031     -20353.208      46.596206      48.009642      137.6941     
     36700  -20464.292      118.50759     -20345.784      46.586243      48.004023      137.7523     
     36800  -20458.416      117.64148     -20340.774      46.577129      47.999077      137.8105     
     36900  -20454.425      116.13462     -20338.29       46.567462      47.994035      137.86869    
     37000  -20449.121      116.2938      -20332.828      46.557733      47.989392      137.92689    
     37100  -20440.615      116.83416     -20323.781      46.548061      47.984978      137.98509    
     37200  -20433.803      118.9812      -20314.822      46.537752      47.979512      138.04328    
     37300  -20426.911      117.93797     -20308.973      46.528523      47.974474      138.10148    
     37400  -20421.762      118.39162     -20303.37       46.518795      47.969041      138.15968    
     37500  -20415.15       117.72119     -20297.429      46.50901       47.963386      138.21787    
     37600  -20407.572      117.43665     -20290.136      46.499243      47.957764      138.27607    
     37700  -20400.422      119.13082     -20281.291      46.489348      47.951892      138.33427    
     37800  -20390.831      117.73801     -20273.093      46.480142      47.946586      138.39247    
     37900  -20384.251      116.51119     -20267.74       46.46996       47.941029      138.45066    
     38000  -20382.838      117.08487     -20265.753      46.459679      47.935774      138.50886    
     38100  -20374.908      114.53252     -20260.376      46.449591      47.930516      138.56706    
     38200  -20367.17       115.27927     -20251.89       46.438978      47.92448       138.62525    
     38300  -20361.209      118.06801     -20243.141      46.429002      47.91855       138.68345    
     38400  -20353.084      116.68182     -20236.402      46.41835       47.91183       138.74165    
     38500  -20350.038      119.58265     -20230.455      46.408226      47.905686      138.79985    
     38600  -20340.671      115.92302     -20224.748      46.398321      47.899493      138.85804    
     38700  -20334.131      115.006       -20219.125      46.387644      47.892252      138.91624    
     38800  -20328.218      115.09344     -20213.125      46.378478      47.885884      138.97444    
     38900  -20322.391      118.25785     -20204.133      46.368212      47.879231      139.03263    
     39000  -20311.966      117.0547      -20194.911      46.357532      47.873514      139.09083    
     39100  -20308.348      119.92327     -20188.425      46.346708      47.868854      139.14903    
     39200  -20303.206      117.12948     -20186.076      46.334284      47.863364      139.20722    
     39300  -20299.138      117.74791     -20181.39       46.322993      47.858399      139.26542    
     39400  -20288.526      115.21147     -20173.314      46.311685      47.852481      139.32362    
     39500  -20281.783      117.21356     -20164.57       46.30043       47.845979      139.38182    
     39600  -20276.036      118.57646     -20157.46       46.290107      47.839426      139.44001    
     39700  -20269.315      116.74212     -20152.573      46.278938      47.83157       139.49821    
     39800  -20267.067      117.51352     -20149.553      46.268778      47.824344      139.55641    
     39900  -20254.438      111.84334     -20142.595      46.258164      47.817368      139.6146     
     40000  -20250.523      118.38929     -20132.134      46.246374      47.810332      139.6728     
     40100  -20243.08       118.9847      -20124.096      46.235129      47.804376      139.731      
     40200  -20235.807      118.1627      -20117.645      46.222566      47.797742      139.78919    
     40300  -20229.301      116.78589     -20112.515      46.210658      47.791361      139.84739    
     40400  -20224.44       114.14627     -20110.293      46.199302      47.784977      139.90559    
     40500  -20217.237      113.2776      -20103.959      46.187473      47.777718      139.96379    
     40600  -20210.827      116.64325     -20094.184      46.176234      47.770206      140.02198    
     40700  -20203.053      117.15815     -20085.895      46.165354      47.762819      140.08018    
     40800  -20196.714      118.41147     -20078.303      46.154297      47.755416      140.13838    
     40900  -20189.873      118.79211     -20071.081      46.142836      47.748509      140.19657    
     41000  -20182.615      117.11729     -20065.498      46.130508      47.74238       140.25477    
     41100  -20176.827      114.75851     -20062.069      46.117607      47.736526      140.31297    
     41200  -20172.992      117.27654     -20055.716      46.104956      47.730605      140.37116    
     41300  -20162.342      117.60144     -20044.74       46.092095      47.724147      140.42936    
     41400  -20154.689      117.58159     -20037.108      46.079255      47.718119      140.48756    
     41500  -20149.554      118.06773     -20031.486      46.065655      47.71136       140.54575    
     41600  -20141.759      115.45364     -20026.305      46.052412      47.704356      140.60395    
     41700  -20138.209      115.41493     -20022.794      46.039849      47.697642      140.66215    
     41800  -20131.058      113.50254     -20017.555      46.026479      47.689597      140.72035    
     41900  -20123.373      117.6226      -20005.75       46.014121      47.682331      140.77854    
     42000  -20113.926      116.81722     -19997.109      46.00172       47.675142      140.83674    
     42100  -20105.912      116.056       -19989.856      45.98851       47.667705      140.89494    
     42200  -20100.532      117.8332      -19982.698      45.975768      47.661147      140.95313    
     42300  -20097.019      120.89691     -19976.122      45.963027      47.654141      141.01133    
     42400  -20088.741      116.45704     -19972.284      45.949958      47.646483      141.06953    
     42500  -20082.912      114.91645     -19967.996      45.937693      47.63908       141.12772    
     42600  -20076.466      116.37329     -19960.093      45.925988      47.631247      141.18592    
     42700  -20067.128      118.56444     -19948.563      45.913873      47.622312      141.24412    
     42800  -20058.015      116.67579     -19941.339      45.902656      47.614565      141.30232    
     42900  -20053.489      116.75183     -19936.737      45.889662      47.606878      141.36051    
     43000  -20049.288      116.88321     -19932.405      45.875825      47.599498      141.41871    
     43100  -20041.181      114.84702     -19926.334      45.862962      47.593555      141.47691    
     43200  -20034.422      118.60091     -19915.821      45.848629      47.585394      141.5351     
     43300  -20024.306      118.51139     -19905.794      45.835614      47.577355      141.5933     
     43400  -20021.133      119.74493     -19901.388      45.82346       47.569355      141.6515     
     43500  -20014.067      116.41835     -19897.648      45.81033       47.559753      141.7097     
     43600  -20008.603      117.15113     -19891.452      45.798475      47.552369      141.76789    
     43700  -20000.059      117.04702     -19883.012      45.785249      47.544071      141.82609    
     43800  -19991.672      120.03708     -19871.635      45.771504      47.535794      141.88429    
     43900  -19983.05       119.16141     -19863.889      45.758623      47.529355      141.94248    
     44000  -19977.212      117.75245     -19859.46       45.743828      47.520876      142.00068    
     44100  -19973.501      118.57437     -19854.926      45.730678      47.51449       142.05888    
     44200  -19967.496      117.41545     -19850.08       45.717584      47.507284      142.11707    
     44300  -19958.525      114.50329     -19844.022      45.704471      47.498771      142.17527    
     44400  -19952.45       116.63703     -19835.813      45.693443      47.491469      142.23347    
     44500  -19944.122      118.91805     -19825.204      45.679956      47.480892      142.29167    
     44600  -19937.988      119.36229     -19818.625      45.668218      47.473243      142.34986    
     44700  -19933.2        117.58701     -19815.613      45.654854      47.46483       142.40806    
     44800  -19926.107      115.96706     -19810.14       45.640415      47.456236      142.46626    
     44900  -19920.002      117.63677     -19802.365      45.627465      47.449757      142.52445    
     45000  -19912.879      119.16738     -19793.711      45.612949      47.441298      142.58265    
     45100  -19901.593      116.3764      -19785.217      45.599687      47.433893      142.64085    
     45200  -19893.905      118.1457      -19775.759      45.586902      47.426344      142.69904    
     45300  -19887.028      118.66188     -19768.366      45.5738        47.416644      142.75724    
     45400  -19882.076      116.29973     -19765.776      45.562185      47.407786      142.81544    
     45500  -19878.938      118.30764     -19760.63       45.549896      47.398499      142.87364    
     45600  -19871.786      118.11089     -19753.675      45.537514      47.389713      142.93183    
     45700  -19863.116      117.79111     -19745.325      45.524999      47.381969      142.99003    
     45800  -19852.218      117.59223     -19734.626      45.511719      47.374224      143.04823    
     45900  -19846.593      118.72015     -19727.872      45.499101      47.367053      143.10642    
     46000  -19840.655      115.30286     -19725.352      45.485732      47.358317      143.16462    
     46100  -19838.561      119.06298     -19719.498      45.472934      47.350449      143.22282    
     46200  -19828.876      116.21162     -19712.665      45.46007       47.341999      143.28101    
     46300  -19820.659      116.3866      -19704.273      45.447267      47.332517      143.33921    
     46400  -19814.059      118.85586     -19695.203      45.435537      47.323945      143.39741    
     46500  -19806.45       119.37006     -19687.08       45.422674      47.314534      143.4556     
     46600  -19799.623      116.33729     -19683.286      45.410459      47.307173      143.5138     
     46700  -19792.803      113.35407     -19679.449      45.39803       47.300385      143.572      
     46800  -19788.231      115.81106     -19672.42       45.384728      47.29109       143.6302     
     46900  -19782.003      118.56499     -19663.438      45.373489      47.28396       143.68839    
     47000  -19771.538      118.44645     -19653.092      45.361215      47.274632      143.74659    
     47100  -19761.381      118.4202      -19642.961      45.348905      47.265048      143.80479    
     47200  -19756.53       118.68723     -19637.843      45.337659      47.25762       143.86298    
     47300  -19755.387      119.53097     -19635.856      45.324197      47.248163      143.92118    
     47400  -19745.973      115.41188     -19630.561      45.31261       47.241828      143.97938    
     47500  -19739.601      115.35246     -19624.248      45.300036      47.234239      144.03758    
     47600  -19731.895      116.32557     -19615.569      45.286558      47.225617      144.09577    
     47700  -19725.324      120.28553     -19605.039      45.275173      47.220176      144.15397    
     47800  -19716.977      118.99071     -19597.986      45.261584      47.210852      144.21217    
     47900  -19712.39       117.74518     -19594.645      45.249609      47.202811      144.27036    
     48000  -19704.341      115.49605     -19588.845      45.238853      47.195054      144.32856    
     48100  -19696.757      116.04672     -19580.71       45.22628       47.184437      144.38676    
     48200  -19690.538      118.57191     -19571.966      45.216453      47.177876      144.44495    
     48300  -19682.355      117.64054     -19564.715      45.204749      47.169262      144.50315    
     48400  -19680.313      118.85501     -19561.458      45.192507      47.159858      144.56135    
     48500  -19672.417      115.98965     -19556.427      45.182217      47.153622      144.61955    
     48600  -19662.915      115.66784     -19547.247      45.169882      47.14381       144.67774    
     48700  -19654.457      116.40982     -19538.048      45.158443      47.134943      144.73594    
     48800  -19649.964      119.28485     -19530.679      45.148091      47.127648      144.79414    
     48900  -19641.305      117.23649     -19524.068      45.136264      47.118479      144.85233    
     49000  -19635.786      116.38681     -19519.4        45.125945      47.110889      144.91053    
     49100  -19628.905      113.64375     -19515.261      45.115512      47.103217      144.96873    
     49200  -19622.795      114.84318     -19507.952      45.104738      47.094838      145.02692    
     49300  -19612.593      117.26133     -19495.331      45.094554      47.087115      145.08512    
     49400  -19605.707      117.76325     -19487.943      45.08386       47.079607      145.14332    
     49500  -19600.847      117.00495     -19483.842      45.072319      47.072549      145.20152    
     49600  -19594.081      115.07178     -19479.009      45.060682      47.066486      145.25971    
     49700  -19589.936      118.32781     -19471.608      45.049357      47.059829      145.31791    
     49800  -19577.655      116.9932      -19460.662      45.03815       47.052335      145.37611    
     49900  -19567.876      117.35173     -19450.524      45.027841      47.045487      145.4343     
     50000  -19561.006      115.54946     -19445.456      45.01757       47.03785       145.4925     
     50100  -19558.407      116.9521      -19441.455      45.007294      47.028992      145.5507     
     50200  -19551.891      115.41054     -19436.481      44.997761      47.020255      145.60889    
     50300  -19545.43       115.75478     -19429.675      44.988204      47.011452      145.66709    
     50400  -19534.568      114.99561     -19419.573      44.97853       47.003121      145.72529    
     50500  -19527.974      119.38552     -19408.589      44.969257      46.995645      145.78348    
     50600  -19521.912      118.83904     -19403.073      44.95969       46.987306      145.84168    
     50700  -19516.654      118.37075     -19398.283      44.950928      46.979467      145.89988    
     50800  -19509.534      117.51874     -19392.015      44.942054      46.971172      145.95808    
     50900  -19503.496      118.53215     -19384.963      44.932714      46.96278       146.01627    
     51000  -19493.11       116.60865     -19376.501      44.923872      46.955859      146.07447    
     51100  -19485.49       120.15076     -19365.339      44.913804      46.948215      146.13267    
     51200  -19480.212      121.70115     -19358.511      44.903832      46.94091       146.19086    
     51300  -19475.605      119.90752     -19355.698      44.894375      46.935024      146.24906    
     51400  -19468.318      118.18279     -19350.136      44.883853      46.928074      146.30726    
     51500  -19459.311      116.17721     -19343.134      44.873864      46.922573      146.36545    
     51600  -19452.72       117.93984     -19334.78       44.864         46.917021      146.42365    
     51700  -19444.981      119.01864     -19325.963      44.853668      46.91006       146.48185    
     51800  -19437.156      118.84856     -19318.308      44.844826      46.90442       146.54005    
     51900  -19433.487      119.07271     -19314.415      44.835628      46.897321      146.59824    
     52000  -19425.136      115.58775     -19309.548      44.826558      46.889278      146.65644    
     52100  -19417.438      116.01717     -19301.421      44.818957      46.882968      146.71464    
     52200  -19409.431      117.73067     -19291.701      44.8106        46.874478      146.77283    
     52300  -19399.932      119.83029     -19280.101      44.802939      46.866611      146.83103    
     52400  -19390.631      118.6289      -19272.002      44.795899      46.860318      146.88923    
     52500  -19388.187      118.16814     -19270.019      44.78725       46.851876      146.94743    
     52600  -19383.52       118.75888     -19264.761      44.779467      46.845177      147.00562    
     52700  -19375.803      116.53942     -19259.264      44.771707      46.838254      147.06382    
     52800  -19367.515      114.70289     -19252.812      44.763426      46.82993       147.12202    
     52900  -19360.172      117.14002     -19243.032      44.756187      46.823132      147.18021    
     53000  -19351.261      118.43947     -19232.822      44.748258      46.816066      147.23841    
     53100  -19345.358      118.8159      -19226.542      44.73992       46.809475      147.29661    
     53200  -19337.349      115.56204     -19221.787      44.731615      46.804063      147.3548     
     53300  -19332.206      117.11484     -19215.091      44.722251      46.798004      147.413      
     53400  -19325.203      117.44245     -19207.76       44.713265      46.792807      147.4712     
     53500  -19320.091      118.52952     -19201.561      44.704063      46.787662      147.5294     
     53600  -19312.718      115.68881     -19197.029      44.69536       46.782522      147.58759    
     53700  -19306.359      115.18564     -19191.173      44.687777      46.777123      147.64579    
     53800  -19297.466      117.51117     -19179.955      44.68076       46.770325      147.70399    
     53900  -19287.59       118.25545     -19169.334      44.673862      46.76307       147.76218    
     54000  -19280.979      117.84556     -19163.133      44.667579      46.756638      147.82038    
     54100  -19276.937      117.49893     -19159.438      44.660907      46.749164      147.87858    
     54200  -19267.898      114.99262     -19152.906      44.654571      46.742044      147.93677    
     54300  -19262.428      118.00023     -19144.428      44.648104      46.735073      147.99497    
     54400  -19252.371      117.20474     -19135.166      44.64096       46.727684      148.05317    
     54500  -19243.76       120.35014     -19123.41       44.633852      46.721626      148.11137    
     54600  -19234.034      117.90491     -19116.129      44.626116      46.715665      148.16956    
     54700  -19230.594      117.63063     -19112.963      44.618135      46.709941      148.22776    
     54800  -19223.418      115.9394      -19107.479      44.610423      46.704847      148.28596    
     54900  -19218.484      116.85907     -19101.625      44.602273      46.699604      148.34415    
     55000  -19213.231      117.85582     -19095.375      44.594351      46.694817      148.40235    
     55100  -19205.256      118.55898     -19086.697      44.586561      46.690119      148.46055    
     55200  -19195.62       120.83325     -19074.787      44.578715      46.684997      148.51874    
     55300  -19186.251      118.84037     -19067.411      44.571032      46.679842      148.57694    
     55400  -19182.573      119.40256     -19063.171      44.563164      46.673995      148.63514    
     55500  -19174.798      117.58697     -19057.211      44.556174      46.668626      148.69333    
     55600  -19167.831      116.99795     -19050.833      44.549443      46.662895      148.75153    
     55700  -19162          117.62738     -19044.373      44.543255      46.657193      148.80973    
     55800  -19154.245      115.03583     -19039.209      44.537365      46.650908      148.86793    
     55900  -19146.982      112.85644     -19034.126      44.531789      46.644586      148.92612    
     56000  -19140.414      115.83888     -19024.575      44.526536      46.638757      148.98432    
     56100  -19132.044      119.81942     -19012.225      44.520828      46.632293      149.04252    
     56200  -19123.698      119.38786     -19004.311      44.514916      46.626058      149.10071    
     56300  -19119.223      120.08984     -18999.133      44.5089        46.620579      149.15891    
     56400  -19111.587      117.37083     -18994.216      44.502386      46.614712      149.21711    
     56500  -19104.085      117.30246     -18986.783      44.496319      46.609455      149.27531    
     56600  -19095.747      117.38923     -18978.358      44.490204      46.604217      149.3335     
     56700  -19086.392      117.02024     -18969.372      44.483724      46.598482      149.3917     
     56800  -19077.942      118.06646     -18959.876      44.476929      46.593479      149.4499     
     56900  -19069.705      115.93163     -18953.773      44.469529      46.588467      149.50809    
     57000  -19066.586      116.64982     -18949.936      44.462423      46.584171      149.56629    
     57100  -19059.501      115.98888     -18943.512      44.455353      46.579141      149.62449    
     57200  -19051.807      116.84941     -18934.958      44.448577      46.573912      149.68268    
     57300  -19042.524      118.54922     -18923.974      44.442594      46.568997      149.74088    
     57400  -19032.245      118.60351     -18913.641      44.436549      46.562819      149.79908    
     57500  -19028.996      118.58898     -18910.407      44.431692      46.557635      149.85728    
     57600  -19022.208      116.97586     -18905.232      44.426982      46.551473      149.91547    
     57700  -19016.664      117.781       -18898.883      44.422121      46.544928      149.97367    
     57800  -19011.218      118.36213     -18892.855      44.417948      46.540338      150.03187    
     57900  -19002.839      116.36085     -18886.478      44.411746      46.534046      150.09006    
     58000  -18994.603      116.19197     -18878.411      44.405919      46.529718      150.14826    
     58100  -18986.824      119.59769     -18867.226      44.399727      46.525146      150.20646    
     58200  -18977.035      119.25645     -18857.778      44.393021      46.519795      150.26465    
     58300  -18971.252      118.91784     -18852.334      44.387414      46.516372      150.32285    
     58400  -18963.595      115.90184     -18847.693      44.380782      46.511701      150.38105    
     58500  -18956.227      116.46879     -18839.759      44.374439      46.507279      150.43924    
     58600  -18948.076      116.61095     -18831.465      44.368765      46.503361      150.49744    
     58700  -18943.939      118.57956     -18825.359      44.362457      46.497303      150.55564    
     58800  -18937.348      116.30055     -18821.047      44.357382      46.492674      150.61384    
     58900  -18930.213      116.43703     -18813.776      44.351933      46.487165      150.67203    
     59000  -18920.361      117.5422      -18802.819      44.346547      46.481052      150.73023    
     59100  -18908.915      118.33652     -18790.578      44.342273      46.476157      150.78843    
     59200  -18903.473      119.26385     -18784.209      44.337313      46.469249      150.84662    
     59300  -18896.851      117.43638     -18779.415      44.333327      46.462968      150.90482    
     59400  -18890.644      116.92448     -18773.72       44.32933       46.456837      150.96302    
     59500  -18884.603      118.10255     -18766.5        44.3247        46.449867      151.02121    
     59600  -18874.263      117.54236     -18756.721      44.320861      46.444648      151.07941    
     59700  -18865.311      121.12059     -18744.191      44.31549       46.438267      151.13761    
     59800  -18857.838      121.70248     -18736.135      44.310349      46.434136      151.19581    
     59900  -18854.079      121.65752     -18732.421      44.304676      46.430685      151.254      
     60000  -18846.458      119.76177     -18726.696      44.298104      46.427086      151.3122     
     60100  -18839.381      118.24439     -18721.136      44.291833      46.424254      151.3704     
     60200  -18828.521      113.92092     -18714.6        44.285386      46.420353      151.42859    
     60300  -18822.972      116.09106     -18706.881      44.279382      46.415465      151.48679    
     60400  -18814.967      116.53937     -18698.428      44.274101      46.410842      151.54499    
     60500  -18804.996      116.15299     -18688.843      44.268437      46.405774      151.60318    
     60600  -18797.854      118.69065     -18679.163      44.263049      46.401175      151.66138    
     60700  -18790.745      117.5963      -18673.148      44.257706      46.396566      151.71958    
     60800  -18785.59       116.92237     -18668.667      44.252404      46.392263      151.77778    
     60900  -18779.194      118.57312     -18660.621      44.247132      46.387587      151.83597    
     61000  -18767.604      115.59536     -18652.009      44.242214      46.382618      151.89417    
     61100  -18758.647      115.35652     -18643.291      44.237573      46.376762      151.95237    
     61200  -18751.708      115.98958     -18635.719      44.233316      46.370537      152.01056    
     61300  -18748.362      118.92184     -18629.44       44.228891      46.364176      152.06876    
     61400  -18738.977      116.25628     -18622.72       44.224812      46.358672      152.12696    
     61500  -18731.727      116.93481     -18614.792      44.220384      46.353126      152.18516    
     61600  -18723.415      117.1609      -18606.254      44.215696      46.347809      152.24335    
     61700  -18714.989      119.21181     -18595.777      44.211269      46.34336       152.30155    
     61800  -18703.889      118.98176     -18584.907      44.206242      46.337657      152.35975    
     61900  -18697.103      118.76453     -18578.338      44.201649      46.332676      152.41794    
     62000  -18687.965      114.11116     -18573.853      44.196408      46.32789       152.47614    
     62100  -18684.559      118.46145     -18566.097      44.191106      46.323621      152.53434    
     62200  -18676.351      117.75768     -18558.593      44.186116      46.319342      152.59253    
     62300  -18670.896      118.37391     -18552.522      44.180603      46.314317      152.65073    
     62400  -18663.75       117.4009      -18546.349      44.175655      46.311123      152.70893    
     62500  -18654.332      115.24564     -18539.087      44.169402      46.306566      152.76713    
     62600  -18646.73       117.10696     -18529.623      44.163239      46.302251      152.82532    
     62700  -18635.347      118.78195     -18516.566      44.157503      46.298613      152.88352    
     62800  -18627.178      120.26675     -18506.911      44.150846      46.293103      152.94172    
     62900  -18617.003      115.51042     -18501.492      44.145687      46.289579      152.99991    
     63000  -18608.635      113.97679     -18494.658      44.140382      46.284843      153.05811    
     63100  -18602.161      116.28807     -18485.873      44.135635      46.279636      153.11631    
     63200  -18592.908      114.91907     -18477.989      44.131749      46.275065      153.1745     
     63300  -18589.101      116.55732     -18472.544      44.127476      46.268228      153.2327     
     63400  -18580.548      114.75602     -18465.792      44.124628      46.262555      153.2909     
     63500  -18573.989      118.0493      -18455.939      44.120895      46.255896      153.3491     
     63600  -18563.68       118.7374      -18444.943      44.117121      46.249747      153.40729    
     63700  -18554.988      119.82773     -18435.161      44.112763      46.2436        153.46549    
     63800  -18544.14       115.79879     -18428.341      44.10814       46.237969      153.52369    
     63900  -18539.64       115.51212     -18424.128      44.103386      46.233421      153.58188    
     64000  -18531.583      117.52182     -18414.061      44.098175      46.228831      153.64008    
     64100  -18518.382      116.36249     -18402.02       44.092829      46.224435      153.69828    
     64200  -18508.908      116.95808     -18391.95       44.087139      46.220522      153.75647    
     64300  -18501.683      114.08794     -18387.595      44.08073       46.216494      153.81467    
     64400  -18497.356      117.16111     -18380.194      44.074545      46.213186      153.87287    
     64500  -18486.988      116.75229     -18370.236      44.068078      46.209034      153.93106    
     64600  -18478.55       118.47857     -18360.072      44.062006      46.204396      153.98926    
     64700  -18469.515      118.89226     -18350.623      44.056915      46.199985      154.04746    
     64800  -18461.565      117.00023     -18344.565      44.051669      46.194057      154.10566    
     64900  -18451.607      114.42361     -18337.184      44.047557      46.189096      154.16385    
     65000  -18445.381      118.3567      -18327.024      44.043257      46.183066      154.22205    
     65100  -18435.43       118.33517     -18317.095      44.039224      46.176541      154.28025    
     65200  -18427.357      118.26309     -18309.094      44.035892      46.170771      154.33844    
     65300  -18417.836      115.75758     -18302.078      44.032039      46.163914      154.39664    
     65400  -18410.334      116.42007     -18293.914      44.028719      46.158434      154.45484    
     65500  -18402.244      117.64431     -18284.6        44.02441       46.151673      154.51304    
     65600  -18393.445      119.62927     -18273.815      44.020456      46.145726      154.57123    
     65700  -18382.585      119.25801     -18263.327      44.016579      46.140344      154.62943    
     65800  -18373.07       118.35771     -18254.713      44.011876      46.13398       154.68763    
     65900  -18363.655      116.29294     -18247.362      44.008024      46.12929       154.74582    
     66000  -18356.835      117.02668     -18239.808      44.002723      46.123264      154.80402    
     66100  -18344.982      115.71305     -18229.269      43.997491      46.117808      154.86222    
     66200  -18337.312      117.66034     -18219.651      43.992351      46.113439      154.92041    
     66300  -18328.589      114.60473     -18213.985      43.985586      46.107892      154.97861    
     66400  -18318.722      112.79918     -18205.923      43.980117      46.104861      155.03681    
     66500  -18309.979      116.55397     -18193.426      43.973026      46.099322      155.09501    
     66600  -18300.954      120.35879     -18180.595      43.967722      46.095535      155.1532     
     66700  -18290.803      119.395       -18171.408      43.962254      46.090123      155.2114     
     66800  -18281.8        116.14815     -18165.652      43.956927      46.084241      155.2696     
     66900  -18273.154      116.62521     -18156.529      43.952947      46.079711      155.32779    
     67000  -18266.008      118.78978     -18147.218      43.947624      46.072209      155.38599    
     67100  -18257.012      119.8864      -18137.125      43.944338      46.067316      155.44419    
     67200  -18244.753      114.41187     -18130.341      43.939579      46.060001      155.50238    
     67300  -18237.063      116.13595     -18120.927      43.935581      46.053624      155.56058    
     67400  -18226.941      117.08843     -18109.853      43.931817      46.047469      155.61878    
     67500  -18219.404      120.4934      -18098.91       43.927427      46.03993       155.67697    
     67600  -18206.602      118.34069     -18088.262      43.924319      46.034293      155.73517    
     67700  -18196.979      118.13755     -18078.842      43.919549      46.027208      155.79337    
     67800  -18187.232      117.77449     -18069.457      43.915551      46.021778      155.85157    
     67900  -18176.212      117.08505     -18059.127      43.910832      46.015767      155.90976    
     68000  -18168.709      119.3005      -18049.409      43.9054        46.008827      155.96796    
     68100  -18158.152      118.45798     -18039.694      43.900998      46.004106      156.02616    
     68200  -18147.229      118.08869     -18029.14       43.895051      45.997496      156.08435    
     68300  -18139.72       119.89122     -18019.829      43.890113      45.992693      156.14255    
     68400  -18128.317      117.881       -18010.436      43.884638      45.987049      156.20075    
     68500  -18120.778      120.08116     -18000.697      43.878996      45.980781      156.25895    
     68600  -18108.332      118.37765     -17989.954      43.874555      45.976097      156.31714    
     68700  -18098.761      118.83542     -17979.925      43.868564      45.9692        156.37534    
     68800  -18087.923      119.16311     -17968.76       43.864007      45.964304      156.43354    
     68900  -18076.593      117.13041     -17959.463      43.858607      45.958023      156.49173    
     69000  -18067.438      117.97816     -17949.46       43.853305      45.951689      156.54993    
     69100  -18058.635      118.64759     -17939.987      43.849082      45.946521      156.60813    
     69200  -18046.832      117.13234     -17929.699      43.843475      45.938653      156.66632    
     69300  -18036.246      117.71788     -17918.528      43.840438      45.933041      156.72452    
     69400  -18025.693      117.76619     -17907.927      43.835681      45.924752      156.78272    
     69500  -18015.631      119.3048      -17896.327      43.831718      45.918076      156.84091    
     69600  -18005.607      119.31804     -17886.289      43.827537      45.911944      156.89911    
     69700  -17994.825      117.99047     -17876.834      43.821871      45.904447      156.95731    
     69800  -17983.264      117.2125      -17866.051      43.817759      45.899337      157.01551    
     69900  -17976.203      119.08918     -17857.114      43.811928      45.892031      157.0737     
     70000  -17967.22       120.81409     -17846.406      43.80689       45.885951      157.1319     
     70100  -17953.434      118.26715     -17835.167      43.802201      45.880126      157.1901     
     70200  -17942.9        119.21164     -17823.688      43.796551      45.87303       157.24829    
     70300  -17929.719      118.20253     -17811.517      43.79208       45.867815      157.30649    
     70400  -17920.885      120.41263     -17800.473      43.786274      45.860981      157.36469    
     70500  -17909.991      120.43677     -17789.555      43.781183      45.85495       157.42289    
     70600  -17898.066      118.79289     -17779.273      43.776052      45.849045      157.48108    
     70700  -17887.866      118.86316     -17769.003      43.770023      45.842146      157.53928    
     70800  -17877.784      120.1056      -17757.678      43.765417      45.837203      157.59748    
     70900  -17866.72       119.66942     -17747.051      43.759141      45.830204      157.65567    
     71000  -17860.013      124.27157     -17735.741      43.754091      45.824571      157.71387    
     71100  -17844.11       120.07198     -17724.038      43.748867      45.817894      157.77207    
     71200  -17834.208      120.24701     -17713.961      43.743494      45.810214      157.83026    
     71300  -17821.611      119.23193     -17702.38       43.739663      45.803731      157.88846    
     71400  -17808.823      117.46427     -17691.359      43.734273      45.795451      157.94666    
     71500  -17799.755      118.97382     -17680.781      43.730046      45.789265      158.00486    
     71600  -17787.183      117.49126     -17669.692      43.724926      45.782086      158.06305    
     71700  -17777.677      119.47001     -17658.207      43.719747      45.775073      158.12125    
     71800  -17764.373      117.91827     -17646.454      43.714987      45.76878       158.17945    
     71900  -17756.396      122.26973     -17634.126      43.709198      45.761673      158.23764    
     72000  -17741.091      118.98056     -17622.11       43.704345      45.755613      158.29584    
     72100  -17731.825      120.64792     -17611.177      43.698655      45.748954      158.35404    
     72200  -17721.716      121.66158     -17600.054      43.693043      45.742592      158.41223    
     72300  -17707.239      119.28101     -17587.958      43.687531      45.736663      158.47043    
     72400  -17695.174      119.30001     -17575.874      43.681499      45.729931      158.52863    
     72500  -17684.715      121.28794     -17563.427      43.676285      45.723885      158.58683    
     72600  -17674.136      121.57226     -17552.563      43.670616      45.717066      158.64502    
     72700  -17661.745      121.92415     -17539.821      43.664968      45.71015       158.70322    
     72800  -17648.869      120.73152     -17528.138      43.659618      45.703394      158.76142    
     72900  -17639.202      123.39791     -17515.804      43.654074      45.69587       158.81961    
     73000  -17625.641      121.33515     -17504.305      43.64891       45.688371      158.87781    
     73100  -17614.799      122.50599     -17492.293      43.644021      45.68089       158.93601    
     73200  -17605.917      125.10962     -17480.807      43.638804      45.673659      158.9942     
[...]
    181600  -21606.52       116.88055     -21489.64       39.844597      39.506596      222.07975    
    181700  -21604.696      115.39165     -21489.305      39.837147      39.497507      222.13795    
    181800  -21603.544      115.72934     -21487.815      39.829873      39.488602      222.19615    
    181900  -21605.14       119.2888      -21485.851      39.823298      39.480027      222.25434    
    182000  -21605.45       120.81163     -21484.638      39.816612      39.471335      222.31254    
    182100  -21606.735      118.82004     -21487.915      39.810266      39.463367      222.37074    
    182200  -21608.854      117.98532     -21490.869      39.802459      39.454896      222.42893    
    182300  -21607.445      116.54016     -21490.905      39.795774      39.447642      222.48713    
    182400  -21607.171      118.03403     -21489.137      39.789006      39.439705      222.54533    
    182500  -21603.672      119.06947     -21484.603      39.782656      39.431894      222.60352    
    182600  -21602.26       117.29902     -21484.961      39.777224      39.424761      222.66172    
    182700  -21605.537      118.08716     -21487.449      39.770761      39.416142      222.71992    
    182800  -21605.756      116.53549     -21489.221      39.766165      39.409774      222.77812    
    182900  -21605.829      116.17432     -21489.655      39.75941       39.401248      222.83631    
    183000  -21605.919      117.29041     -21488.629      39.753848      39.393778      222.89451    
    183100  -21602.947      119.07018     -21483.877      39.748907      39.386329      222.95271    
    183200  -21604.1        120.08911     -21484.011      39.743151      39.378532      223.0109     
    183300  -21605.651      118.36452     -21487.287      39.738457      39.372051      223.0691     
    183400  -21604.75       115.95067     -21488.8        39.732575      39.364285      223.1273     
    183500  -21604.745      115.51967     -21489.225      39.728364      39.357944      223.1855     
    183600  -21605.337      116.16166     -21489.175      39.722789      39.350469      223.24369    
    183700  -21605.572      117.6796      -21487.893      39.717645      39.34389       223.30189    
    183800  -21605.884      120.75312     -21485.131      39.712396      39.338254      223.36009    
    183900  -21603.146      117.792       -21485.354      39.705263      39.331504      223.41828    
    184000  -21605.903      116.82471     -21489.078      39.700519      39.327628      223.47648    
    184100  -21607.474      116.56814     -21490.906      39.693331      39.321561      223.53468    
    184200  -21604.862      114.67407     -21490.188      39.687729      39.317546      223.59287    
    184300  -21605.42       116.79736     -21488.622      39.681156      39.31205       223.65107    
    184400  -21603.887      119.93896     -21483.948      39.675442      39.307281      223.70927    
    184500  -21600.985      118.78547     -21482.2        39.670312      39.303682      223.76747    
    184600  -21604.553      119.22589     -21485.327      39.663343      39.298363      223.82566    
    184700  -21604.936      117.14195     -21487.794      39.659631      39.294721      223.88386    
    184800  -21605.056      115.44755     -21489.609      39.653754      39.288101      223.94206    
    184900  -21605.015      114.32849     -21490.686      39.650218      39.284065      224.00025    
    185000  -21606.184      116.54608     -21489.638      39.645461      39.278345      224.05845    
    185100  -21604.242      118.87316     -21485.369      39.641368      39.273265      224.11665    
    185200  -21601.693      116.8163      -21484.876      39.637529      39.26844       224.17484    
    185300  -21605.292      117.39172     -21487.9        39.632473      39.262676      224.23304    
    185400  -21606.381      116.47455     -21489.907      39.629249      39.258331      224.29124    
    185500  -21607.116      117.55012     -21489.566      39.624002      39.252369      224.34944    
    185600  -21607.903      119.06588     -21488.837      39.620115      39.248315      224.40763    
    185700  -21605.887      117.59286     -21488.294      39.614763      39.243422      224.46583    
    185800  -21605.407      118.91014     -21486.497      39.608948      39.239743      224.52403    
    185900  -21602.793      117.61172     -21485.181      39.604322      39.237724      224.58222    
    186000  -21607.961      120.25558     -21487.706      39.59783       39.233367      224.64042    
    186100  -21606.096      115.3671      -21490.729      39.593844      39.230964      224.69862    
    186200  -21608.487      118.19006     -21490.297      39.588601      39.226546      224.75681    
    186300  -21606.457      118.26847     -21488.188      39.584454      39.222916      224.81501    
    186400  -21602.804      118.23124     -21484.573      39.580167      39.218937      224.87321    
    186500  -21602.133      120.82681     -21481.306      39.575469      39.214885      224.9314     
    186600  -21601.806      117.57154     -21484.234      39.571519      39.211313      224.9896     
    186700  -21605.458      116.85551     -21488.602      39.566856      39.206444      225.0478     
    186800  -21605.773      115.74428     -21490.029      39.563446      39.202692      225.106      
    186900  -21605.204      115.59033     -21489.614      39.559406      39.198247      225.16419    
    187000  -21605.96       118.56404     -21487.396      39.555904      39.194554      225.22239    
    187100  -21604.569      119.12423     -21485.445      39.552325      39.191031      225.28059    
    187200  -21602.37       117.72859     -21484.641      39.548104      39.187536      225.33878    
    187300  -21607.154      120.09745     -21487.056      39.544419      39.184694      225.39698    
    187400  -21605.462      114.78709     -21490.674      39.539847      39.180836      225.45518    
    187500  -21605.187      114.56453     -21490.623      39.536186      39.177021      225.51337    
    187600  -21605.313      117.82848     -21487.485      39.532212      39.172661      225.57157    
    187700  -21603.128      117.87558     -21485.252      39.528889      39.168565      225.62977    
    187800  -21603.209      116.95627     -21486.253      39.525951      39.164164      225.68797    
    187900  -21602.669      114.85204     -21487.817      39.522028      39.159551      225.74616    
    188000  -21608.508      119.20692     -21489.301      39.518478      39.155794      225.80436    
    188100  -21606.744      116.33148     -21490.413      39.514613      39.151225      225.86256    
    188200  -21605.493      113.74249     -21491.75       39.511626      39.147238      225.92075    
    188300  -21607.451      115.51831     -21491.932      39.507987      39.142358      225.97895    
    188400  -21604.983      116.84985     -21488.133      39.504808      39.137922      226.03715    
    188500  -21604.387      118.26488     -21486.122      39.501981      39.134963      226.09535    
    188600  -21606.071      119.32828     -21486.743      39.498093      39.131423      226.15354    
    188700  -21607.215      117.17406     -21490.041      39.49429       39.128534      226.21174    
    188800  -21607.542      114.72381     -21492.818      39.489887      39.125655      226.26994    
    188900  -21605.011      113.19796     -21491.813      39.485434      39.122943      226.32813    
    189000  -21606.258      116.32163     -21489.936      39.4816        39.120545      226.38633    
    189100  -21606.883      118.50323     -21488.38       39.477732      39.116555      226.44453    
    189200  -21602.202      114.79896     -21487.403      39.474515      39.113291      226.50272    
    189300  -21606.366      118.22318     -21488.143      39.471093      39.109887      226.56092    
    189400  -21606.266      114.3349      -21491.931      39.467457      39.105558      226.61912    
    189500  -21606.371      113.77927     -21492.592      39.464912      39.101858      226.67732    
    189600  -21609.035      119.72692     -21489.308      39.462277      39.0978        226.73551    
    189700  -21603.629      116.2343      -21487.395      39.460146      39.094543      226.79371    
    189800  -21605.837      118.29307     -21487.544      39.45654       39.089653      226.85191    
    189900  -21605.802      117.74309     -21488.059      39.454341      39.086765      226.9101     
    190000  -21604.942      116.55053     -21488.391      39.450961      39.082447      226.9683     
    190100  -21607.067      118.23014     -21488.837      39.448053      39.078903      227.0265     
    190200  -21604.783      116.0002      -21488.782      39.444762      39.074668      227.08469    
    190300  -21606.357      117.40764     -21488.95       39.441301      39.07092       227.14289    
    190400  -21606.697      117.9038      -21488.793      39.438553      39.067965      227.20109    
    190500  -21604.725      116.42991     -21488.295      39.434977      39.063488      227.25929    
    190600  -21606.961      119.43241     -21487.529      39.433023      39.061172      227.31748    
    190700  -21607.107      119.76631     -21487.341      39.429567      39.057128      227.37568    
    190800  -21606.79       117.49602     -21489.294      39.427067      39.05347       227.43388    
    190900  -21608.019      116.52524     -21491.494      39.424945      39.048962      227.49207    
    191000  -21606.488      115.43864     -21491.05       39.422265      39.043674      227.55027    
    191100  -21605.799      119.27221     -21486.527      39.420938      39.040588      227.60847    
    191200  -21602.476      117.11835     -21485.358      39.417491      39.035331      227.66666    
    191300  -21605.096      117.90055     -21487.196      39.415172      39.031463      227.72486    
    191400  -21606.549      116.98758     -21489.562      39.41244       39.027096      227.78306    
    191500  -21605.285      114.65935     -21490.626      39.409346      39.02276       227.84125    
    191600  -21602.627      115.11372     -21487.513      39.406037      39.019248      227.89945    
    191700  -21603.696      120.83992     -21482.856      39.402643      39.015797      227.95765    
    191800  -21604.978      119.26306     -21485.715      39.39918       39.011928      228.01585    
    191900  -21605.575      116.28486     -21489.29       39.395563      39.00857       228.07404    
    192000  -21607.459      116.46109     -21490.998      39.391276      39.005792      228.13224    
    192100  -21605.459      115.25848     -21490.2        39.386669      39.002314      228.19044    
    192200  -21605.294      118.9446      -21486.349      39.382782      38.998463      228.24863    
    192300  -21604.431      119.13585     -21485.295      39.378887      38.994652      228.30683    
    192400  -21604.181      117.63439     -21486.547      39.375136      38.990337      228.36503    
    192500  -21606.211      118.61835     -21487.592      39.372538      38.985945      228.42323    
    192600  -21606.175      117.90061     -21488.274      39.370373      38.981112      228.48142    
    192700  -21606.842      116.97698     -21489.865      39.368285      38.975327      228.53962    
    192800  -21607.731      115.41096     -21492.32       39.366335      38.970154      228.59782    
    192900  -21609.465      114.07826     -21495.387      39.3635        38.964859      228.65601    
    193000  -21607.655      114.56391     -21493.091      39.361324      38.959889      228.71421    
    193100  -21603.862      115.01258     -21488.85       39.35892       38.955051      228.77241    
    193200  -21605.017      117.25716     -21487.76       39.356023      38.949911      228.8306     
    193300  -21604.095      116.2879      -21487.807      39.353372      38.94558       228.8888     
    193400  -21608.155      119.57745     -21488.578      39.349379      38.940687      228.947      
    193500  -21609.293      117.89064     -21491.403      39.34593       38.937038      229.0052     
    193600  -21607.319      114.4832      -21492.836      39.341616      38.932269      229.06339    
    193700  -21606.948      117.27609     -21489.672      39.337952      38.928576      229.12159    
    193800  -21605.849      119.4464      -21486.402      39.334443      38.924742      229.17979    
    193900  -21601.739      115.03983     -21486.699      39.331264      38.919613      229.23798    
    194000  -21606.032      117.50595     -21488.526      39.328182      38.914528      229.29618    
    194100  -21606.676      115.41451     -21491.261      39.324978      38.909243      229.35438    
    194200  -21610.667      116.02381     -21494.643      39.322423      38.903711      229.41257    
    194300  -21608.863      113.34186     -21495.521      39.319744      38.897763      229.47077    
    194400  -21607.925      117.82605     -21490.099      39.316949      38.89181       229.52897    
    194500  -21605.461      117.64877     -21487.812      39.313746      38.886819      229.58717    
    194600  -21603.608      116.40743     -21487.2        39.310214      38.881486      229.64536    
    194700  -21607.391      119.06811     -21488.323      39.307456      38.876858      229.70356    
    194800  -21605.024      114.16807     -21490.856      39.305043      38.872115      229.76176    
    194900  -21609          116.57717     -21492.423      39.301413      38.866308      229.81995    
    195000  -21607.42       117.69729     -21489.723      39.298581      38.86218       229.87815    
    195100  -21603.982      117.85499     -21486.127      39.294485      38.85685       229.93635    
    195200  -21604.124      117.87687     -21486.247      39.290205      38.853037      229.99454    
    195300  -21606.312      117.26126     -21489.051      39.284958      38.848808      230.05274    
    195400  -21606.202      114.86925     -21491.333      39.280269      38.844874      230.11094    
    195500  -21604.916      114.41885     -21490.498      39.275783      38.840428      230.16914    
    195600  -21605.986      116.8148      -21489.171      39.271289      38.835956      230.22733    
    195700  -21607.502      119.23002     -21488.272      39.266899      38.830961      230.28553    
    195800  -21601.467      113.47855     -21487.988      39.262422      38.825758      230.34373    
    195900  -21604.768      116.04981     -21488.718      39.25839       38.821451      230.40192    
    196000  -21607.729      116.9197      -21490.809      39.254116      38.816261      230.46012    
    196100  -21608.423      116.91974     -21491.503      39.25057       38.810848      230.51832    
    196200  -21604.524      115.61465     -21488.91       39.248068      38.804891      230.57651    
    196300  -21604.138      118.40468     -21485.733      39.245282      38.798593      230.63471    
    196400  -21605.393      119.57243     -21485.821      39.24155       38.792458      230.69291    
    196500  -21603.559      115.594       -21487.965      39.237842      38.787333      230.7511     
    196600  -21609.133      118.12496     -21491.008      39.233113      38.781891      230.8093     
    196700  -21603.582      112.54247     -21491.039      39.228034      38.776688      230.8675     
    196800  -21607.092      117.79702     -21489.295      39.222473      38.771898      230.9257     
    196900  -21605.341      118.04717     -21487.294      39.217412      38.767163      230.98389    
    197000  -21605.053      118.41523     -21486.637      39.212032      38.761948      231.04209    
    197100  -21605.78       116.3225      -21489.458      39.206861      38.757035      231.10029    
    197200  -21608.461      116.01436     -21492.447      39.201283      38.752016      231.15848    
    197300  -21607.155      115.85602     -21491.299      39.196314      38.747136      231.21668    
    197400  -21607.108      117.94443     -21489.164      39.191578      38.741884      231.27488    
    197500  -21605.304      116.76294     -21488.541      39.186993      38.73664       231.33308    
    197600  -21607.872      118.93231     -21488.94       39.182107      38.730723      231.39127    
    197700  -21608.055      118.24609     -21489.809      39.177355      38.725311      231.44947    
    197800  -21606.518      114.747       -21491.771      39.172823      38.719502      231.50767    
    197900  -21610.031      116.60396     -21493.427      39.168395      38.713945      231.56586    
    198000  -21607.193      115.69789     -21491.495      39.163272      38.707954      231.62406    
    198100  -21604.066      116.629       -21487.437      39.158565      38.702431      231.68226    
    198200  -21604.088      117.4605      -21486.628      39.153801      38.69687       231.74045    
    198300  -21603.656      115.64889     -21488.008      39.148706      38.691021      231.79865    
    198400  -21609.218      117.64888     -21491.569      39.143022      38.685148      231.85685    
    198500  -21609.857      116.52802     -21493.329      39.137146      38.679552      231.91505    
    198600  -21606.797      114.86524     -21491.932      39.131116      38.67488       231.97324    
    198700  -21605.726      115.55259     -21490.173      39.124612      38.669228      232.03144    
    198800  -21604.987      116.76636     -21488.221      39.118586      38.663788      232.08964    
    198900  -21604.494      117.58216     -21486.912      39.113191      38.657944      232.14783    
    199000  -21604.764      117.12905     -21487.635      39.108478      38.651788      232.20603    
    199100  -21605.987      113.98161     -21492.005      39.103731      38.646008      232.26423    
    199200  -21608.615      116.30436     -21492.311      39.098506      38.639259      232.32242    
    199300  -21605.688      115.9269      -21489.761      39.093695      38.633343      232.38062    
    199400  -21606.515      120.11402     -21486.401      39.088241      38.62644       232.43882    
    199500  -21605.896      119.57517     -21486.321      39.082766      38.620584      232.49702    
    199600  -21605.26       117.76705     -21487.493      39.077249      38.613978      232.55521    
    199700  -21606.867      118.1606      -21488.707      39.07154       38.606962      232.61341    
    199800  -21605.751      116.28669     -21489.464      39.065688      38.60107       232.67161    
    199900  -21607.162      116.39365     -21490.768      39.059014      38.594589      232.7298     
    200000  -21605.355      114.02506     -21491.33       39.05261       38.588147      232.788      
Loop time of 2346.48 on 8 procs for 200000 steps with 3024 atoms

Performance: 7.364 ns/day, 3.259 hours/ns, 85.234 timesteps/s
93.7% CPU use with 8 MPI tasks x 1 OpenMP threads

MPI task timing breakdown:
Section |  min time  |  avg time  |  max time  |%varavg| %total
---------------------------------------------------------------
Pair    | 719.21     | 1452.8     | 2188.4     |1259.5 | 61.91
Neigh   | 3.4762     | 10.149     | 15.584     | 136.4 |  0.43
Comm    | 83.8       | 666.69     | 1165.1     |1190.8 | 28.41
Output  | 0.90828    | 0.92357    | 1.0292     |   4.2 |  0.04
Modify  | 54.391     | 212.58     | 680.2      |1802.6 |  9.06
Other   |            | 3.379      |            |       |  0.14

Nlocal:            378 ave         847 max           2 min
Histogram: 1 1 1 0 1 2 1 0 0 1
Nghost:        1507.88 ave        3061 max         171 min
Histogram: 1 1 1 0 0 3 1 0 0 1
Neighs:              0 ave           0 max           0 min
Histogram: 8 0 0 0 0 0 0 0 0 0

Total # of neighbors = 0
Ave neighs/atom = 0
Neighbor list builds = 1183
Dangerous builds = 0
Total wall time: 0:39:06
