ITEM: TIMESTEP
60000
ITEM: NUMBER OF ATOMS
2928
ITEM: BOX BOUNDS pp pp pp
-2.2156659854650314e+01 2.2156659854650314e+01
-2.3084817909880080e+01 2.3084817909880080e+01
-1.7337828800000000e+01 1.2766946480000000e+02
ITEM: ATOMS type x y z f_avestress[1] f_avestress[2] f_avestress[3] f_avestress[4] f_avestress[5] f_avestress[6]
3 -5.28656 -6.7519 -16.3453 185506 -198297 1.42577e+07 151722 3973.74 19141.4
3 -2.79205 -7.56837 -16.352 -119423 148710 1.42472e+07 -168053 52472.6 -23109.6
3 -1.3174 -7.74189 -16.3461 -35294.7 67566.7 1.43006e+07 208100 23205.6 -55458.2
3 1.27894 -7.35546 -16.3296 73233.2 -47100.9 1.43718e+07 -161170 62231 -122355
3 2.66358 -6.86834 -16.2868 -166908 186998 1.42459e+07 25488 96124.5 -152138
3 -6.22244 -5.65356 -16.3497 -220420 203536 1.41722e+07 111788 2171.2 41695.7
3 4.63436 -5.29385 -16.3472 144786 -88090.3 1.43809e+07 -57669.6 7167.11 -94893.7
3 5.59765 -4.19254 -16.3623 -53668.8 87157.3 1.43469e+07 -61066.9 -83626.9 9210.95
3 -7.60827 -3.49621 -16.3124 180813 -203688 1.41632e+07 -131219 30359.7 -26623.9
2 -3.94382 -1.86926 -15.3541 140320 365043 -61458.5 -828294 387304 419571
2 -2.99947 -2.52462 -16.1897 612901 -719401 403584 671207 -384266 67054.3
2 -2.3309 -3.64512 -15.6561 542571 270297 -415024 448039 -858917 222355
2 -0.928634 -3.90044 -15.9172 376205 -4393.99 -146997 -366494 869405 447765
2 -0.232416 -2.91937 -16.6223 728464 -995167 554684 -230268 385428 142832
2 1.07911 -2.46685 -16.1961 -48566.6 776682 -254616 589761 -454118 506137
3 -7.8466 -2.04727 -16.2506 31618.2 -34282.8 1.42815e+07 226367 37154.3 -40276.7
2 -3.82207 -0.442041 -15.6522 -377330 420543 240427 775653 165484 -485162
2 -2.80121 -0.288251 -16.6517 725113 -909465 174956 -450229 -83833.5 427273
2 -2.29199 -1.60167 -16.9783 -862023 870706 28872.5 -147336 444893 -94818.4
2 -0.919378 -1.75252 -17.113 -588135 783516 -319809 -267976 -571647 -229848
2 0.0229543 -0.591947 -17.0905 363216 -629721 143597 679165 70899.5 498697
2 1.23043 -1.07124 -16.4861 89645.1 -46306.5 227284 -764002 -97161.3 -653832
3 7.12938 -2.02233 -16.2962 168167 -178626 1.44063e+07 68756.2 -122653 -8786.51
3 7.69005 -0.655977 -16.3032 -62132 23146.2 1.41689e+07 -166796 -53971.8 -37294.3
3 -4.75714 -7.13123 -14.772 -258976 192097 1.41892e+07 -70263 21509.9 -18153.9
3 -3.35449 -7.54236 -14.7741 66224.8 -152800 1.42715e+07 201435 23517.6 -22338
3 -0.75362 -7.72244 -14.7382 10086.6 -81260.6 1.42916e+07 -219529 18181.6 -57787.5
3 0.74986 -7.59807 -14.7392 -146512 23050.2 1.43902e+07 202328 76599.5 -117023
3 3.01414 -6.53112 -14.6884 91526.3 -208919 1.42759e+07 -9282.47 67548.5 -162912
3 -6.65326 -5.25071 -14.7176 216470 -256093 1.41657e+07 -33419.7 9468.61 16884.3
2 -2.70229 -4.1523 -14.3257 -972845 116756 778576 -238536 384947 -167764
2 -1.46859 -4.64231 -13.7724 729289 -173511 -1.0787e+06 138681 188543 394221
2 -0.388182 -4.42685 -14.6633 -886411 56491.9 395662 86026.5 -687206 -252028
3 4.1291 -5.60046 -14.7316 -165410 143648 1.43718e+07 -172.123 21771.8 -78187.8
3 -7.38739 -4.03663 -14.7424 -179526 116454 1.42436e+07 191057 3100 -2696.25
2 -3.66588 -3.52062 -13.5016 -301206 -382007 760368 459591 475697 -555262
2 -4.25663 -2.35139 -14.0807 530923 680649 -967492 -316208 -31588.2 196135
2 0.841797 -3.96803 -14.256 32079.9 -654734 411193 -149884 -438562 -805750
2 1.58667 -3.01354 -15.0324 346440 832152 -917249 180721 303290 362326
3 6.00339 -3.79663 -14.7496 189800 -109529 1.42752e+07 -7996.9 -42745 -10326.9
3 6.8702 -2.5417 -14.7412 -38255.9 103597 1.44208e+07 -71912.3 -93009.4 20861.7
3 -7.95527 -1.48114 -14.7388 -25967.3 -973.469 1.43462e+07 -220573 27705 -88348.5
2 -4.51677 -1.38545 -13.019 -234114 -665819 920795 537834 -245439 351348
2 -4.35533 0.0444584 -13.2654 -110603 -986570 859286 -397798 -1795.07 208387
2 -4.01293 0.442788 -14.6178 345327 628049 -689259 345315 -10820 -759701
2 2.38134 -2.26585 -14.0997 164320 -742801 992917 -483094 -15665.4 246284
2 2.40473 -0.870922 -14.3735 -50337.3 -480374 873343 486787 -257139 339862
3 7.8168 -0.0945309 -14.7291 112185 -160986 1.41512e+07 167574 -39219.3 -21045.7
3 -5.21342 -6.75734 -13.1739 152177 -254188 1.42116e+07 117000 33886.2 15894.1
3 -4.6234 -7.0202 -11.613 -233796 220566 1.41998e+07 -35549.4 -6648.66 22389.9
3 -3.252 -7.40002 -11.6222 60892.3 -72445.5 1.43592e+07 226495 -29520 7351.96
3 -2.77191 -7.64332 -13.1764 -146216 107874 1.43455e+07 -174424 -7440.59 29133.8
3 -1.31982 -7.80639 -13.1667 -59463.6 -28799.8 1.4266e+07 198863 -31171.8 40557.9
3 -0.743029 -7.83675 -11.5829 -60383.2 17637 1.42976e+07 -210428 -34012.9 -12420.4
3 1.31056 -7.54866 -13.1531 100188 -198383 1.44756e+07 -95573.4 -14311.6 11984.9
3 0.710804 -7.75131 -11.5471 -170254 137639 1.44873e+07 139958 -36924.4 -1977.5
3 2.63086 -6.8542 -13.08 -197785 86311.5 1.4228e+07 127835 -42300.3 -7220.09
3 3.04127 -6.48168 -11.5166 75204.3 -123379 1.42374e+07 -147770 -14869.1 10518.5
3 -6.56974 -5.20216 -11.6109 226802 -264610 1.41001e+07 14631.8 52174.8 -27030.7
3 -6.2276 -5.66614 -13.1289 -270864 172038 1.41058e+07 90704.8 52970.6 -15079.9
2 -1.19036 -4.42812 -12.3849 944120 -281229 -598646 265916 271726 -642257
3 4.14909 -5.56763 -11.5341 -141485 127556 1.44217e+07 -60930.9 -13261.1 -36260.7
3 4.53599 -5.21432 -13.1561 75752.7 -120437 1.43803e+07 -4290.94 -23097.3 -29222.6
3 5.68666 -4.24917 -13.1235 -59685.9 104493 1.41831e+07 -70032.6 -54265.8 -27766.9
3 -7.65993 -3.49008 -13.1778 132483 -157166 1.4287e+07 -156544 48005.8 -42265.3
3 -7.37359 -3.96342 -11.5687 -126803 103187 1.43255e+07 229446 49346.9 -47197.3
2 -3.46021 -3.34189 -12.0903 162299 193923 -77116 54264 -668213 740161
2 -3.90865 -1.91805 -11.8195 298423 352952 -463700 -165926 478037 -724807
2 -2.20815 -3.71949 -11.5952 -463214 412105 422831 -500100 -594476 100571
2 1.12625 -3.7953 -12.8746 101554 169948 48190 -200778 471292 793015
2 0.141216 -4.00534 -11.9403 -788329 565151 539781 195949 284155 200179
2 2.08653 -2.67397 -12.7602 358976 572081 -596935 337214 -56542.6 -818588
3 5.98852 -3.7312 -11.5614 152178 -158252 1.4131e+07 -41586.8 -7205.6 17592.9
3 6.83173 -2.59356 -11.5652 -65114.1 58862.8 1.4394e+07 -103548 -17257 41112.2
3 -7.91001 -2.03199 -13.1592 -29798.6 -2694.86 1.43577e+07 212949 94769.2 -78866.6
3 -8.02313 -1.41322 -11.6003 50997.6 -50739.8 1.43657e+07 -195599 64481 -66866.1
2 -3.08614 0.285539 -11.197 -208765 715340 -415921 600163 -560639 496731
2 -3.26576 -1.09632 -10.8536 111403 -61903.7 254184 -732942 -78272.3 -655298
2 1.96013 -1.7656 -11.723 -476485 330369 212128 742293 203694 -449759
3 7.09821 -2.03563 -13.1678 181710 -166138 1.43772e+07 74986.8 -25866.1 53229.7
3 7.5072 -0.636995 -13.1344 -62635.2 61614.6 1.41825e+07 -150529 -13948.9 38302.5
3 7.60885 -0.0914057 -11.6142 109252 -146064 1.41625e+07 174842 -11045.8 47269.5
3 -5.15878 -6.66852 -10.0128 204437 -198351 1.42288e+07 134055 2614.12 -17522.3
3 -2.74847 -7.61689 -10.0216 -233376 153573 1.43127e+07 -143213 -14655.9 -20301.8
3 -1.3053 -7.98639 -9.97349 -136464 57863.3 1.43566e+07 221497 -41274.2 -61423.5
3 1.325 -7.5415 -9.99196 38783.5 -59088.2 1.44747e+07 -194507 -13572.2 -33848.8
3 2.60794 -6.88205 -9.98717 -206325 162612 1.42853e+07 23216.4 28932.8 -51388.2
3 -6.27334 -5.67994 -10.0427 -225044 211615 1.42251e+07 93203.8 -1455.8 24965.5
3 4.52188 -5.18721 -10.0305 75599.3 -159482 1.44326e+07 -103073 37932.7 -24869.8
3 -7.53592 -3.37474 -10.0153 172348 -214041 1.44224e+07 -132736 44977.2 -108591
2 -1.48168 -2.85192 -10.7021 24226.8 166104 200178 636366 658427 -132048
2 -0.0518046 -3.03637 -10.902 600719 -366760 -214230 -515720 -527213 -560441
3 5.62358 -4.17083 -9.9993 -131005 9834.11 1.41731e+07 -130654 -13818.4 -25273
3 -7.80916 -1.95498 -10.0036 26347.9 -60637.5 1.43308e+07 229481 32736 -103199
2 -2.01087 -1.59884 -10.2695 474464 -442376 322925 635620 47017.8 548131
2 -1.07859 -0.467829 -10.2024 -701638 961097 -239959 -266064 -627457 -282247
2 0.268967 -0.663036 -10.5588 -1.06041e+06 765653 -207031 -109389 386331 -34741.6
2 0.817859 -1.90704 -10.911 597568 -1.09276e+06 -158390 -405990 -89815.3 395670
3 7.11369 -1.9916 -9.99338 152843 -159790 1.44226e+07 72985.8 -18787.9 47896.7
3 7.56507 -0.593345 -9.97974 -64968.3 35379.3 1.41807e+07 -153561 -10820.9 51477.5
3 -4.65123 -6.93621 -8.41233 -293353 191114 1.4148e+07 -18153.9 67716.1 -53897.8
3 -3.29376 -7.51904 -8.46574 17629.7 -102701 1.43989e+07 232865 30049.1 -53701.2
3 -0.722232 -8.04408 -8.40434 -78305.3 34365.9 1.43788e+07 -209813 -79104.3 -59239.8
3 0.697177 -7.71672 -8.42673 -213213 155326 1.43828e+07 131021 -58698.9 -48844.5
3 2.9755 -6.49982 -8.47183 77923.4 -137625 1.42968e+07 -143501 28264.9 -50506.6
3 -6.63537 -5.19733 -8.43286 231728 -251917 1.4244e+07 -9792.74 26624.6 -11448.9
3 4.15515 -5.61404 -8.42649 -172032 117956 1.43979e+07 -71900.1 37185.7 1496.23
3 -7.3481 -3.97716 -8.4382 -144390 137545 1.45325e+07 195128 22800.5 -43809.5
3 5.99993 -3.74629 -8.42577 109395 -189581 1.42509e+07 -49569 -64153.1 -38309.1
3 6.814 -2.54921 -8.41045 -118318 2403.28 1.4314e+07 -118403 -65900.5 -26019.3
3 -7.92057 -1.49341 -8.42955 53033.9 -135863 1.42414e+07 -199573 36219.4 -25732.3
3 7.76143 -0.0190669 -8.37901 93797.6 -93979.3 1.42358e+07 176421 -6110.86 37740.3
3 -5.06216 -6.52069 -6.79652 146258 -213730 1.40801e+07 171476 32683.2 -57615.2
3 -2.80073 -7.68775 -6.82185 -87961.4 149272 1.4454e+07 -166906 -53149.3 -68220.3
3 -3.26773 -7.48209 -5.3049 121341 -89000.1 1.4442e+07 192800 -72756 -111706
3 -1.35784 -8.00253 -6.8503 -8902.65 77779.5 1.43546e+07 207819 -55262.6 -86191.9
3 1.27045 -7.58738 -6.83036 46019.8 -46899.9 1.4305e+07 -185633 -29172.4 -61155.4
3 2.48424 -6.80526 -6.90029 -173678 183251 1.42693e+07 11259.8 19288.8 -74760.2
3 -6.25663 -5.69641 -6.85235 -228323 192924 1.42168e+07 120927 39353.4 -53622.2
3 -6.71139 -5.30736 -5.26682 230501 -245478 1.41726e+07 -5963.66 5695.08 -80983.5
3 4.5425 -5.18922 -6.9076 110489 -122253 1.43629e+07 -86161.6 45166.2 -4958.64
3 5.59366 -4.24256 -6.87808 -78832.2 67197 1.43241e+07 -85096.6 -40742.7 40784.5
3 -7.56138 -3.5554 -6.85733 190680 -172511 1.45116e+07 -144657 37022.6 -21839
3 -7.3944 -4.02643 -5.29066 -147602 117480 1.44395e+07 199950 13101 -58156.7
1 -2.96549 -2.32713 -6.06255 771383 -948731 495960 170948 -307771 1289.34
1 -2.30203 -3.53153 -5.7324 516063 31185.4 -71408.9 390722 -876126 414700
1 -0.902523 -3.65434 -5.85357 436721 259021 -369939 -453175 848179 216153
1 -0.170308 -2.59126 -6.43674 588422 -743525 391779 -697733 302270 35031.2
1 1.06012 -2.205 -5.78306 252312 223849 -90866.8 916206 -293757 569282
3 6.74269 -2.57885 -5.32211 -44812.8 49770.5 1.43031e+07 -87052.3 -60811 -5012.08
3 -8.02288 -1.46271 -5.25872 24635.6 -64650.7 1.41619e+07 -189950 -20163.9 37612
3 -7.82651 -2.09365 -6.83714 37543.9 -40765.7 1.41898e+07 228733 22243.9 15590.4
1 -4.09974 -1.80078 -5.27873 -243118 854807 -162849 -590356 502269 462869
1 -2.8631 -0.00758812 -6.06679 381553 -493745 271422 -707448 -33182 441478
1 -3.93692 -0.377915 -5.2967 226655 15431.9 127093 817993 148100 -689863
1 -2.25642 -1.1602 -6.69186 -796976 877037 -314260 354023 636757 -162446
1 -0.838084 -1.34108 -6.88693 -1.01076e+06 769079 -429338 242101 -534147 94659.8
1 1.27075 -0.766537 -5.99675 -442349 489185 193832 -792581 -286218 -486794
1 -0.00248956 -0.245514 -6.55496 735339 -1.04888e+06 185591 257874 155027 258517
3 7.05756 -1.98659 -6.81702 159547 -203014 1.42883e+07 53018.3 -90516.4 -22966
3 7.65019 -0.605581 -6.89012 -83962.6 7982.08 1.41889e+07 -171730 -16410.8 -18868.3
3 -4.61262 -6.84139 -5.22234 -187741 208006 1.40999e+07 -83457.6 -64570.3 -55128.5
3 -5.20412 -6.71412 -3.69217 205167 -228495 1.41414e+07 91023.3 -44801.4 -33124
3 -2.70478 -7.80006 -3.71209 -103885 30276.1 1.44029e+07 -235369 -86338 -63462.5
3 -0.711696 -8.00825 -5.27321 30653.3 -40074.3 1.4324e+07 -199914 -41639.2 -123221
3 -1.28053 -8.10426 -3.6858 13858.9 -99809.9 1.42854e+07 240935 -51624.2 -32825.4
3 0.695039 -7.6203 -5.24666 -110144 94038 1.42774e+07 176772 14291.4 -83452.3
3 1.24678 -7.48094 -3.69535 96869.4 -208389 1.41802e+07 -160280 35110.4 58908.6
3 3.04684 -6.56355 -5.28748 72624.1 -176769 1.42325e+07 -77245.3 55686.4 -110212
3 2.55537 -6.84883 -3.67655 -239570 32492.6 1.42783e+07 173449 16468.4 25382.9
3 -6.28419 -5.72581 -3.68854 -243514 199824 1.4246e+07 39778.7 -15238.7 -36518.9
1 -0.340386 -4.39566 -4.75166 -1.00538e+06 89309.8 655042 375642 -521273 -95289
1 -1.46977 -4.75861 -3.91365 838186 -178239 -1.03196e+06 -136918 -27187.5 453748
3 4.21386 -5.65671 -5.29882 -197709 117417 1.43058e+07 -32342 27015.4 -41200.2
3 4.6204 -5.23934 -3.70908 105186 -141594 1.42704e+07 -27375.2 -29828.8 -11208
3 5.6967 -4.20295 -3.67996 -66784.9 83846 1.42487e+07 -70569.4 -10665.3 -15894.2
3 -7.60722 -3.46829 -3.70834 133363 -195195 1.43708e+07 -172769 32917.8 5167.21
1 -4.33355 -2.51395 -4.01851 172217 728061 -981979 -153964 -192116 341705
1 -3.69262 -3.71829 -3.6552 34831.7 -574361 538530 221499 435411 -838260
1 -2.68755 -4.19885 -4.4994 -926049 277527 639567 53843.2 613485 -330670
1 0.927773 -4.12483 -4.21409 -402966 -480370 462697 -347523 -656958 -576763
1 1.63814 -2.97737 -4.71981 545702 501903 -1.01341e+06 382826 190186 379173
1 2.1893 -2.20297 -3.68403 -227415 -583249 1.05811e+06 -586601 179222 230933
3 6.03949 -3.838 -5.28378 160947 -138835 1.43196e+07 -26073.3 -26001.7 8694.89
3 -7.97208 -2.06207 -3.6726 -111587 -20443.8 1.4094e+07 207057 34906.8 31623.9
1 1.854 -0.0450308 -4.87493 391987 587518 -713537 -320683 72391.2 -769092
1 2.31524 -0.81179 -3.75381 178365 -894146 976795 370736 41158.8 158573
3 7.01517 -1.99608 -3.71764 175000 -175895 1.43036e+07 66900.5 -22003.6 -12304.1
3 7.55624 -0.635218 -3.7576 -53915.9 17915.4 1.41077e+07 -156149 -66762.7 7654.77
3 7.74803 -0.0860477 -5.25526 113130 -190720 1.41376e+07 174713 -59359.3 2093.46
3 -4.58086 -6.93381 -2.11586 -182118 233953 1.41778e+07 -65210.5 -104000 -44798.6
3 -3.26476 -7.55827 -2.13775 116243 -89308.1 1.44345e+07 184105 -83460.8 -36247.6
3 -0.764244 -7.98219 -2.05762 -37530.4 -26616 1.42552e+07 -195711 18257.4 32902.1
3 0.711319 -7.71817 -2.06195 -166452 119335 1.41779e+07 131409 -2479.08 78135.4
3 3.06962 -6.57282 -2.08392 89072.4 -174482 1.43107e+07 -55921.8 -47126.4 133003
3 -6.61513 -5.25776 -2.0841 225935 -237485 1.42065e+07 -20223.9 -30509.4 -9941
1 -1.32754 -4.65512 -2.53413 979130 -242109 -730560 -252230 -223720 -638350
1 -0.0861628 -4.388 -1.93156 -614315 307038 426303 554038 629795 91923.4
3 4.3014 -5.73366 -2.08967 -154974 139824 1.42885e+07 -20367.9 -21791.7 36313.9
3 -7.31945 -4.01178 -2.09432 -117191 128664 1.43832e+07 194911 32845.7 16269.1
1 -4.08622 -2.4668 -1.71652 365248 616091 -748749 -238767 34898.2 -689865
1 -3.58155 -3.72452 -2.217 44017.6 37778.5 246007 266153 -441498 922715
1 -2.35387 -4.19088 -1.62799 -944654 608311 611418 -23635.5 -340048 351507
1 1.87847 -2.902 -2.44874 471018 330184 -592843 174916 -513539 -735930
1 0.998323 -4.043 -2.74387 -24173.3 -31575.7 -72636 -74434.7 720003 647155
1 1.65725 -2.15528 -1.24277 279449 -125520 131510 779039 67121.9 -682495
3 6.05833 -3.7941 -2.09996 177286 -83349.3 1.4193e+07 4194.85 -8097.65 -32145.7
3 6.70128 -2.46835 -2.1496 -36718.7 95898.8 1.4307e+07 -70348.5 34564.2 -272.859
3 -7.97524 -1.4842 -2.10093 3364.65 13109.9 1.41791e+07 -193421 98507.9 -5585.49
1 -4.64653 -1.77273 -2.82951 -125480 -1.1583e+06 891440 400312 45906.8 168153
1 -4.60857 -0.340763 -2.90264 -613063 -794775 780176 -571560 165997 227177
1 1.7264 -0.665448 -1.33202 -264710 704254 -185797 -619915 475505 468995
1 2.00527 -0.0855963 -2.57977 359177 843093 -968690 -210063 -237896 382878
3 7.75952 -0.135359 -2.14877 92459.5 -147623 1.41141e+07 167650 -28410.8 4045.85
3 -5.11205 -6.67215 -0.519878 218933 -189719 1.42366e+07 113890 -103408 -73296.3
3 -2.69147 -7.70387 -0.552048 -166347 150210 1.44014e+07 -170866 -66182.8 -77047.3
3 -1.27843 -8.02934 -0.5186 -97622.6 49946.7 1.41939e+07 216413 -19241.3 4366.43
3 1.3109 -7.52431 -0.483169 67624.2 -73512.3 1.42132e+07 -167178 -16469.1 44730.6
3 2.61943 -6.91863 -0.472053 -165353 185197 1.43143e+07 21702.2 -33218.2 86416.1
3 -6.28331 -5.76518 -0.58465 -198790 223723 1.42707e+07 81040.8 -87643.5 -8011.43
3 4.6943 -5.33879 -0.518272 156043 -77510.2 1.44324e+07 -32466.3 -42344.1 -21085.4
3 -7.68426 -3.44427 -0.597474 173465 -140689 1.44338e+07 -153628 15751.9 -16618.4
1 -0.274444 -3.51531 -0.763851 26542.1 209783 -8634.32 -683491 -767507 -190837
1 -1.72987 -3.48107 -0.478819 661957 -215940 -152899 538952 639143 -465204
1 0.497846 -2.44157 -0.476084 441303 -543922 348184 -766022 -138536 430185
3 5.70198 -4.32558 -0.521641 -59503.4 107475 1.41707e+07 -42136.6 12467.8 -68562.7
3 6.99381 -1.9937 -0.564768 159463 -151057 1.42548e+07 88848.7 61123.5 33552.2
3 -8.01189 -2.09767 -0.505945 18658.3 3668.38 1.41756e+07 215724 61494.9 -26606.1
1 -3.50335 -1.74177 -0.667958 -386375 568074 170518 -750176 -294089 -468642
1 -2.29578 -2.29033 -0.0580853 841762 -894801 276608 351540 203467 324900
1 -0.0722991 -1.20945 -0.0262024 -615173 846496 -111946 330956 555869 -228727
1 -1.41055 -1.14917 0.216034 -819497 1.01372e+06 36214.1 215806 -494022 -62575.3
1 0.703942 -0.0678079 -0.495594 722455 -1.05987e+06 465573 186659 -359698 7386.57
3 7.57446 -0.693476 -0.578093 -69563.9 60316.5 1.4206e+07 -139631 16170.7 62948.7
3 -4.64236 -7.04061 1.04892 -226987 195522 1.42082e+07 -71500.9 -94327.9 -104328
3 -5.22841 -6.69772 2.59873 194062 -231520 1.41959e+07 101650 -105847 -96105.8
3 -3.27364 -7.56289 1.06046 105448 -112602 1.43991e+07 209628 -55944.5 -91930.6
3 -2.75454 -7.68022 2.64915 -137305 101017 1.43398e+07 -181777 -16782.2 -112184
3 -0.707051 -8.05055 1.07247 -64533.4 11957.6 1.42159e+07 -203934 -19221.6 -26429.4
3 -1.3293 -7.91307 2.66468 -65287.8 13655.3 1.4255e+07 210783 26.3021 -10716.1
3 0.723066 -7.77916 1.10553 -185573 124745 1.42278e+07 131497 -18941.4 26366.7
3 1.29447 -7.60901 2.62536 87709.2 -112316 1.42772e+07 -142924 -69226.2 11202.6
3 3.01273 -6.49975 1.03555 123897 -107030 1.43588e+07 -65048 -51826.6 15097
3 2.55744 -6.87432 2.60977 -167417 152029 1.43611e+07 60822.3 -73393.4 -7538.17
3 -6.67719 -5.28659 0.945904 214370 -226595 1.42259e+07 -41844.4 -96611 -27897.7
3 -6.25176 -5.73071 2.53876 -253007 191471 1.42122e+07 67164.1 -73303.3 -48992.2
3 4.26415 -5.77799 1.08559 -121618 153657 1.44886e+07 3954.51 -26569.5 -32608.4
3 4.7512 -5.35869 2.63235 116493 -121441 1.44375e+07 -17642.3 6860.51 3850.64
3 5.78444 -4.31181 2.60582 -117892 87930.7 1.41519e+07 -52105.7 61218.1 -630.383
3 -7.49807 -4.03704 0.952916 -146687 153240 1.45421e+07 167478 -23655.4 31209.5
3 -7.66288 -3.47159 2.53179 133619 -94732.5 1.45807e+07 -190133 -19398.3 12253.7
3 6.02094 -3.77035 1.04662 99814.5 -147886 1.41506e+07 -3748.03 49282.3 -17768.9
3 6.76849 -2.49614 1.07686 -91316.6 65580.4 1.42336e+07 -84638.6 48093 26686.9
3 -8.05645 -2.03793 2.58797 -33431.9 31267.5 1.41108e+07 210106 62735.9 59355.4
3 -8.11494 -1.45559 1.05003 31758.1 -77300.7 1.41581e+07 -195383 49189.4 12844.4
3 7.15883 -2.01495 2.57843 135171 -149769 1.42242e+07 90277.5 28671.2 14141.4
3 7.71587 -0.662228 2.60354 -100032 76776.8 1.43382e+07 -141411 9127.1 2247.49
3 7.65752 -0.0666349 1.00151 89781.8 -89558.7 1.42871e+07 170833 11305.3 3734.82
3 -4.70864 -6.96294 4.19605 -259541 184067 1.41699e+07 -82417.3 -70580.2 -76451.3
3 -3.34525 -7.47393 4.15838 77876.7 -154425 1.43017e+07 215041 -25896.1 -71976.9
3 -0.711988 -7.99727 4.19622 24730.3 -39253.9 1.43054e+07 -195469 -41110 -8536.51
3 0.725468 -7.7348 4.20157 -112641 94480.1 1.42613e+07 148592 -63355.4 10228.9
3 3.10097 -6.60065 4.22419 112705 -140215 1.43321e+07 -73258.3 -74399.4 -5283.91
3 -6.57646 -5.28382 4.13017 191651 -213898 1.42283e+07 -70306.6 -48150.4 -82433
3 4.36338 -5.85637 4.16968 -151080 119996 1.43383e+07 1298.1 -16025.9 -6337.6
3 -7.40326 -4.01865 4.10486 -159382 181836 1.45256e+07 165877 7407.37 -19636.6
3 6.11629 -3.78758 4.17932 85840.2 -150679 1.41942e+07 8088.74 22987 1807.29
3 6.90574 -2.58806 4.1831 -116368 48683.2 1.42082e+07 -98648.4 -13261.8 -3243.84
3 -8.07685 -1.50977 4.20582 -4752.83 -28399.2 1.41407e+07 -193103 63958.8 65315.3
3 -8.03522 -0.0521011 4.2736 74473.3 -114042 1.40977e+07 170955 98527.6 22111.9
3 7.84992 -0.138165 4.15947 78986.7 -64394.6 1.44024e+07 184456 -14025.3 -43035.3
3 -5.19549 -6.66131 5.78661 184565 -246579 1.42135e+07 90881.4 -30265.7 -97195.4
3 -2.80692 -7.68756 5.76957 -113969 83787.4 1.43501e+07 -179986 -68997.2 -42786.9
3 -1.33815 -7.90935 5.75679 -37104.5 4629.32 1.42439e+07 213271 -61729.6 -1650.35
3 1.25092 -7.40633 5.79804 120715 -106139 1.42585e+07 -121288 -83123.5 15242.4
3 2.58253 -6.86098 5.8038 -135934 151879 1.43461e+07 86155.3 -79273.9 20433.2
3 -6.2352 -5.68576 5.72838 -252893 205436 1.42424e+07 63748.7 -25918.3 -95202.3
3 4.66458 -5.26337 5.74556 104705 -126705 1.42994e+07 -19732.1 -6176.39 24009.5
3 5.7493 -4.28016 5.73117 -116965 96808.9 1.42e+07 -21305.3 42068.2 5707.61
3 -7.64019 -3.53497 5.6942 120269 -84234.5 1.44753e+07 -182573 -17827.2 31551.8
3 7.16411 -2.10516 5.76288 127352 -158748 1.42016e+07 83152.5 -22164.1 -43072.3
3 -8.09211 -2.15216 5.75512 -33932.5 28783.2 1.41477e+07 201286 51204.8 79778
3 7.72638 -0.767098 5.75692 -96034.5 66066.2 1.44138e+07 -142597 -21493.5 -71442.6
3 -4.70787 -7.0196 7.35249 -228949 192481 1.42012e+07 -103554 -50560.9 -70073.5
3 -3.38163 -7.58506 7.38004 123697 -147686 1.43421e+07 195477 -60845.4 -20080
3 -0.758181 -7.84338 7.36806 42872.4 -28116.6 1.42757e+07 -183615 -91713.3 -14099.4
3 0.713938 -7.66159 7.3873 -93807.2 91694.9 1.4278e+07 151370 -87830.8 12256.5
3 3.09096 -6.55573 7.33981 113078 -134928 1.43337e+07 -55409.5 -68757.1 14450
3 -6.60902 -5.2441 7.32391 209941 -219015 1.42862e+07 -78670.2 1867.65 -116760
3 4.33268 -5.73757 7.36285 -142487 120841 1.42796e+07 8708.33 -14294 7013.51
3 -7.53362 -4.1329 7.25618 -163868 143747 1.43701e+07 159309 -11442.1 -55127.2
3 6.07892 -3.80355 7.30827 119466 -106937 1.42114e+07 41621.6 15919.8 200.67
3 6.95002 -2.6442 7.31299 -107699 117961 1.43203e+07 -52539.4 4675.88 1639.83
3 -8.18131 -1.59882 7.34711 -14245.1 57613.6 1.42448e+07 -179017 39781.6 59894.7
3 -8.03439 -0.0257759 7.32209 84198.4 -36181 1.41727e+07 172182 98270.5 55621.8
3 7.88164 -0.147886 7.3129 78978.7 -132007 1.43854e+07 175209 -34595.9 -52326.4
3 -5.15625 -6.63917 8.93455 218836 -219704 1.42566e+07 72231 16739.1 -94953.5
3 -4.63812 -6.84654 10.5481 -160524 218247 1.43547e+07 -138844 -34575.6 -37369.4
3 -2.7977 -7.72892 8.92836 -43919.5 71412.8 1.4409e+07 -207466 -107336 -4656.83
3 -3.31875 -7.41377 10.5186 171867 -124185 1.44353e+07 175106 -81882.6 -12613.4
3 -1.35811 -7.84979 8.94249 21448.3 1800.72 1.42438e+07 210901 -103997 -30995.2
3 -0.723148 -7.81115 10.5387 44270 -36173.4 1.42308e+07 -188080 -78687.3 -20523.7
3 1.26517 -7.43621 8.98095 97783.8 -113348 1.42748e+07 -115351 -73988.4 9806.82
3 0.723479 -7.68335 10.5307 -84714.9 103366 1.42896e+07 161117 -68781.6 5867.49
3 2.58422 -6.77209 8.94626 -138600 159515 1.43154e+07 79687.6 -58363.2 5536.09
3 3.14145 -6.59826 10.5571 112370 -146434 1.43235e+07 -66659.7 -69282.6 50695.4
3 -6.23306 -5.65101 8.8768 -233357 227503 1.42779e+07 41052.8 8117.81 -114131
3 -6.7585 -5.31973 10.446 214297 -256432 1.41831e+07 -67181.7 -3170.76 -52271.7
3 4.30664 -5.72242 10.5231 -164974 116324 1.42557e+07 9645.1 -29801 21309.6
3 4.70952 -5.35051 8.91353 110728 -105508 1.42759e+07 -8408.58 -7819.59 2285.18
3 5.65691 -4.23947 8.91107 -105380 102281 1.41858e+07 -25487.9 -2228.79 -11333.8
3 -7.83962 -3.60849 8.8563 117589 -127348 1.43282e+07 -171035 -13281.8 -19427.3
3 -7.61638 -4.15576 10.4292 -176859 123590 1.4277e+07 169525 8986.68 -27063.8
3 6.13367 -3.78809 10.4997 132852 -77801.3 1.42041e+07 63388.4 -11978 -29017.8
3 6.93894 -2.55719 10.5249 -86551.4 140496 1.43237e+07 -39206.4 -3852.57 -36404.8
3 7.29078 -2.15108 8.88969 118817 -78119 1.43433e+07 113556 13714.2 -22358.1
3 -8.09615 -2.19958 8.88262 -29626.8 6274.4 1.41642e+07 202699 27142.9 -2262.71
3 -8.04758 -1.61539 10.4523 -10559 4641.7 1.41456e+07 -185184 37473.1 -9272.98
3 -8.07076 -0.169263 10.5272 73816.8 -70746 1.41835e+07 169180 66089.9 5818.87
3 7.76752 -0.792817 8.85618 -89154.8 134192 1.43901e+07 -121138 -3644.9 -4528.17
3 7.80949 -0.186923 10.4627 81175.2 -63158.3 1.43639e+07 188837 -3668.17 33382.5
3 -5.08813 -6.45406 12.0927 214713 -234050 1.43699e+07 71172 -50545.3 6696.1
3 -2.71486 -7.61469 12.1081 -30153.4 83353.5 1.44299e+07 -204664 -91293.7 -20629.8
3 -1.29406 -7.79351 12.1116 23220.4 6420.82 1.42112e+07 220605 -74792.4 -25663.6
3 1.30251 -7.54441 12.1073 73673.4 -110969 1.42213e+07 -124792 -32497.7 40894.2
3 2.71153 -6.98492 12.1029 -158361 135098 1.43118e+07 68830.9 -81259 70234.5
3 -6.27129 -5.54727 12.0694 -234838 220796 1.41684e+07 46170 -24103.2 -9574.74
3 4.70298 -5.30649 12.1192 113489 -105353 1.43079e+07 -4695.37 -78564.3 28140
3 5.71812 -4.22151 12.1135 -106972 119652 1.42087e+07 -16353.9 -33944.7 -32197.3
3 -7.86261 -3.59609 11.9913 95692.9 -139651 1.42517e+07 -162181 11824.8 2508.38
3 -8.12646 -2.1798 11.9939 -17148.9 -3114.53 1.41218e+07 216270 25287.4 -21286.4
3 7.19148 -2.07702 12.0941 119536 -99260.1 1.42791e+07 107450 11094.7 -24954.1
3 7.65211 -0.713312 12.0736 -81790.5 114421 1.42887e+07 -126310 -11830.6 -578.518
3 -4.56759 -6.64772 13.6668 -171564 210206 1.44306e+07 -129092 -83931.8 32824.2
3 -3.2788 -7.38289 13.688 151876 -138870 1.43939e+07 177421 -114574 -384.865
3 -0.723372 -7.76546 13.6579 1295.98 -49438.2 1.41695e+07 -202897 -27344.1 -20607.9
3 0.718217 -7.57098 13.6378 -141505 89277 1.42117e+07 139501 -40096.2 47071.9
3 3.14918 -6.64948 13.6635 117673 -124112 1.42988e+07 -49947.2 -68327.9 43492.3
3 -6.6726 -5.25565 13.6802 203199 -226726 1.4147e+07 -72092 -46884.5 -2384.2
3 -7.64065 -4.0756 13.6274 -166696 141481 1.42874e+07 164582 -7332.11 30901.9
3 4.2819 -5.61618 13.6848 -125518 122034 1.42907e+07 21037.9 -73954.2 29826.6
3 6.05839 -3.81634 13.7037 116975 -119360 1.42291e+07 39724.2 -17901.9 -50379.3
3 6.85629 -2.57862 13.68 -100857 119011 1.42571e+07 -67145.7 -10747.5 -37404.3
3 -7.94837 -1.57381 13.5877 -2875.89 -57392 1.41589e+07 -189238 19347 -6403.1
3 -8.02911 -0.0793108 13.6342 48082.7 -136230 1.41326e+07 157973 24184.6 -30657.1
3 7.76154 -0.134599 13.6746 77708.3 -59793.5 1.42663e+07 186936 -11956.7 4290.79
3 -5.03325 -6.34002 15.2799 225699 -226910 1.45079e+07 37961.1 -102443 31462.9
3 -4.50846 -6.70368 16.8677 -213073 191989 1.44288e+07 -116247 -82608.2 13250.4
3 -2.77886 -7.68197 15.2662 -93165.6 75574.9 1.43658e+07 -190725 -64227 -11706
3 -3.2951 -7.47171 16.8825 120936 -152615 1.43132e+07 195517 -62610.8 369.146
3 -1.30031 -7.96271 15.2393 -37284 10004.1 1.40903e+07 221523 -48497.8 -8439.38
3 -0.738984 -7.94812 16.8414 12165.5 -38124.8 1.40403e+07 -195094 -37468.2 -4884.78
3 1.26172 -7.43865 15.2263 95815.4 -97701.5 1.42248e+07 -111571 -44777.7 52460.7
3 0.709486 -7.63115 16.8237 -112213 97126.9 1.42518e+07 145862 -33950.3 28685.1
3 2.61884 -6.82851 15.2742 -124125 148419 1.4305e+07 87278.3 -61930.6 63122.1
3 3.18433 -6.60966 16.8299 148591 -107438 1.43149e+07 -23506.1 -80731 65091.1
3 -6.67745 -5.19874 16.8797 205057 -219997 1.42431e+07 -87095.5 -64544 27489.5
3 -6.23166 -5.56768 15.3041 -232372 231572 1.41793e+07 43538.3 -73639.8 21210.2
3 -7.47347 -4.00797 16.8362 -159535 143430 1.42662e+07 156832 -35815.5 25858.4
3 4.30968 -5.77407 16.8091 -95363.8 130633 1.42641e+07 40690.1 -34228.9 50673.4
3 4.73652 -5.34977 15.1992 109282 -118631 1.42663e+07 824.941 -64289.4 41246.8
3 5.62591 -4.21934 15.2956 -107872 110017 1.4263e+07 -25963.5 -7713.46 -12034.4
3 -7.78824 -3.57575 15.2368 95744.4 -136480 1.42848e+07 -168887 -16262.2 32294.8
3 -8.00742 -2.09751 15.2115 -33253.3 -4005.81 1.41936e+07 204394 -5052.5 44980
3 -8.07705 -1.48236 16.8145 -10383.8 -22565.6 1.4269e+07 -180931 -25873 18907.1
3 -7.98604 0.0114539 16.8059 68403.4 -95878.3 1.4171e+07 166816 -8155.26 -871.381
3 7.17166 -2.17047 15.259 130529 -110582 1.42738e+07 108301 -3120.79 -65799.4
3 7.58552 -0.724406 15.2873 -89369.4 103299 1.41914e+07 -126238 398.072 -41911.8
3 7.75693 -0.174923 16.8227 80701.7 -129165 1.41373e+07 178278 22967.7 8235.35
3 -5.05748 -6.47197 18.4325 221530 -223213 1.43495e+07 62155.4 -104623 31741.2
3 -2.71643 -7.7874 18.4059 -111258 78694.6 1.43364e+07 -192469 -46193 -16801.5
3 -1.3149 -8.01339 18.3555 -67321.1 7218.59 1.39751e+07 224439 -67883.6 5478.75
3 1.27014 -7.41544 18.4129 132352 -107903 1.42437e+07 -105972 -72514.6 9711.28
3 2.64912 -6.92213 18.431 -103920 151346 1.43027e+07 97458.9 -84370.7 47635.4
3 -6.24771 -5.69243 18.4582 -227311 231111 1.42913e+07 42093.3 -75940 61582.1
3 5.60566 -4.27154 18.4633 -108935 130247 1.4294e+07 -7637.9 -46013.7 -19835.1
3 4.77729 -5.46775 18.4107 118300 -104081 1.42879e+07 9820.54 -56968.8 52119.6
3 -8.03997 -2.078 18.4085 -37236.4 29927.4 1.42969e+07 205596 -27729.7 51978.7
3 -7.73947 -3.50384 18.4495 104267 -111634 1.41665e+07 -175900 -50226.4 31750.9
3 5.98541 -3.77852 16.8556 130169 -101999 1.42829e+07 53777.7 -30354.4 -29168.2
3 6.82375 -2.616 16.8375 -108139 136064 1.42594e+07 -54435.7 14744 -57844
3 7.61435 -0.778952 18.3778 -86523.1 66476.4 1.42054e+07 -153573 23271.3 29060.6
3 7.11379 -2.11891 18.4426 121968 -146319 1.41424e+07 95517.1 32748.7 12895.4
3 -4.49804 -6.69367 19.9842 -248770 166147 1.42809e+07 -90397.6 -52394.6 5419.48
3 -3.22614 -7.41689 19.9849 97777.1 -148681 1.43319e+07 217988 -27052.2 -6414.13
3 -0.722937 -7.99219 19.9447 4765.14 -45499 1.40621e+07 -187456 -116618 -4052.82
3 0.711131 -7.57001 19.955 -125990 101835 1.42242e+07 142707 -101756 -19587.1
3 3.13733 -6.63184 20.0157 121678 -98980.5 1.42499e+07 -43376.6 -37911.9 66224.1
3 -6.6872 -5.26355 20.0281 214687 -198594 1.44222e+07 -97005.5 -39258.7 29053.2
3 -7.46619 -4.01096 20.0034 -164894 155983 1.40685e+07 156691 -41918.9 24278.9
3 4.36788 -5.80865 20.0274 -115598 128697 1.43627e+07 23416.5 -53946.2 49827.3
3 6.04001 -3.80549 19.9817 133742 -118311 1.43079e+07 25888.3 -44115.8 -4462.7
3 6.84372 -2.5652 20.0272 -116559 94338.6 1.40852e+07 -79913.5 16142.8 4400.45
3 -8.10877 -1.47348 20.0166 -7664.7 59367.9 1.43123e+07 -180439 -31260.1 19376.8
3 -8.02753 0.0159763 20.0002 52582.6 -43915 1.42035e+07 178321 -2712.08 6214.13