ITEM: TIMESTEP
40000
ITEM: NUMBER OF ATOMS
2928
ITEM: BOX BOUNDS pp pp pp
-2.3022788777603143e+01 2.3022788777603143e+01
-2.3793104204411179e+01 2.3793104204411179e+01
-1.1760625200000000e+01 1.2209226120000000e+02
ITEM: ATOMS type x y z f_avestress[1] f_avestress[2] f_avestress[3] f_avestress[4] f_avestress[5] f_avestress[6]
3 -3.06543 -6.70384 -11.4498 33716 -61148.8 1.08256e+07 220324 44209.1 49858.4
3 -2.47673 -6.77112 -9.99461 -126838 84173.7 1.08057e+07 -132673 69122.3 57172.6
3 -1.06863 -6.92942 -9.99577 -79052.7 62256.3 1.08364e+07 181425 94185.3 81609.1
3 -0.441278 -7.02549 -11.4526 -67029.6 40922.3 1.08497e+07 -120945 102823 51748
3 0.981468 -6.90977 -11.4333 -112401 98487.6 1.09069e+07 100508 112212 27491.7
3 1.63529 -6.80788 -10.0623 17390.5 33421.7 1.09025e+07 -116284 87889.7 40954.3
3 -6.70674 -4.74149 -11.4231 221899 -283154 1.08313e+07 54410.7 -2537.42 21414.5
3 -6.14725 -5.04257 -10.0298 -274160 209279 1.08569e+07 34335.8 3986.92 36448
3 -4.9968 -5.89314 -10.0545 128592 -200511 1.08453e+07 166151 27770.4 51302.1
3 -4.41997 -6.22516 -11.4939 -218165 180692 1.08534e+07 -88987.2 36401.8 54914
3 3.00639 -6.4281 -10.0822 -99484 132551 1.08252e+07 61103.6 96829.1 -42979.6
3 3.59714 -6.19645 -11.5625 27807 -66205.2 1.08286e+07 -173102 74883.1 -38396.4
3 4.93536 -5.68472 -11.4939 -186242 155629 1.08246e+07 7559.07 80901.9 -66703.2
3 5.5188 -5.43472 -10.0625 180020 -131809 1.08076e+07 -126230 88463.9 -114125
3 6.68681 -4.64099 -10.0947 -170999 212703 1.07602e+07 -57329.4 88845.5 -81667.1
3 -7.60419 -3.60077 -11.4626 -212068 138906 1.08214e+07 183817 -33336.4 14034.3
3 -7.90699 -3.04195 -9.96242 199104 -252808 1.08004e+07 -111515 -24358.8 8455.89
3 7.11235 -4.19352 -11.4883 226747 -243262 1.07859e+07 -51525.1 28157.8 -51697.1
3 7.97397 -3.01876 -11.4754 -164147 135250 1.07154e+07 -177293 -30138.4 -50803.9
3 8.14592 -2.41234 -9.96672 220679 -216331 1.06514e+07 100953 16183.7 -60341.5
3 -8.53828 -1.74879 -9.9854 -76355.4 26317.4 1.08584e+07 247659 -34810.4 15105.2
3 -8.53431 -1.12266 -11.5667 90587.1 -153901 1.08488e+07 -216923 -55552.6 5504.86
2 0.456463 -1.59925 -10.0282 -802877 470148 -144021 -494232 270052 249348
2 1.21472 -2.73709 -9.58143 841616 -961292 86811.2 88199.1 -180815 72635.5
2 2.6138 -2.40875 -9.80096 -675066 745740 172851 548760 68685.7 -19509.4
2 2.67128 -1.04901 -10.424 68990.8 -290946 289970 -884969 -106517 67166.9
2 3.58675 -2.74737 -8.8406 -265201 905129 -366876 382189 -679750 86651.3
3 8.36017 -0.992032 -10.0307 -6412.06 44006.5 1.06575e+07 -245431 -793.079 -33547.6
3 8.35493 -0.368959 -11.4699 112258 -140281 1.07049e+07 228512 -33968.1 -26186.1
3 -0.38597 -6.823 -8.60612 -11289.9 67467 1.08458e+07 -104858 60974 64346
3 1.01218 -6.93351 -8.61469 -59603.5 112270 1.08656e+07 97306.1 71857.4 4494.12
3 -6.66087 -4.62698 -8.56916 210709 -286197 1.0857e+07 35470.9 20322.9 31672.4
3 -3.08623 -6.56238 -8.60638 31429.9 -65682.4 1.07754e+07 236749 64936 59708.8
3 -4.45098 -6.16232 -8.62187 -216856 155505 1.08316e+07 -90012.9 36792.8 54038.5
3 3.66567 -6.35366 -8.6377 112081 -146900 1.0815e+07 -95948.1 77111.6 -71919.9
3 5.05333 -5.84422 -8.64276 -129813 89320.5 1.07807e+07 110636 129387 -123734
3 -7.61173 -3.56047 -8.57986 -215542 147981 1.08099e+07 174560 3453.61 19198.3
2 0.818431 -3.33249 -8.36626 783394 -38386.8 -517175 263391 -465613 430485
2 -0.340494 -2.79468 -7.61638 -801563 421766 841472 120279 -93508.5 -161586
2 1.78986 -3.66145 -7.36856 -419568 106197 344184 -213986 646918 37777.7
2 3.20843 -3.44304 -7.6451 72621.4 -584088 561774 -637059 144186 -281791
2 4.06717 -2.87666 -6.53991 227819 -105694 -455288 661735 6820.86 719003
3 7.12793 -4.2234 -8.57643 195219 -234616 1.0763e+07 57492.2 110114 -118271
3 7.82176 -2.96163 -8.58955 -193597 194395 1.06597e+07 -115302 66809.7 -63457.6
3 -8.61197 -1.12345 -8.52089 79302.1 -142299 1.08517e+07 -225254 -33206.1 27646.4
2 -1.07621 -1.70889 -8.11393 155257 -347017 483214 262738 154943 -437889
2 -0.71687 -1.10693 -9.3523 180819 735673 -820142 -156607 263971 212920
2 4.96562 -1.87699 -7.12914 -346360 258246 53185.2 -537354 -505959 -601456
2 4.72316 -1.78728 -8.56711 646423 -721700 410188 135798 468876 422789
3 8.36472 -0.339112 -8.60473 113214 -88420 1.06007e+07 233419 56502.2 -21023.6
3 -3.07227 -6.38747 -5.667 44424.1 -77040.8 1.07894e+07 212887 19248.3 22790.1
3 -2.4691 -6.58923 -7.17869 -86830.8 98243 1.07727e+07 -129610 39146.8 55779
3 -1.05729 -6.73733 -7.17562 -35487.3 68229.4 1.08287e+07 177551 34965 32309.9
3 -0.443822 -6.95893 -5.72978 2230.7 58555.6 1.08465e+07 -105951 15255.7 -2079.91
3 0.995855 -6.90937 -5.68614 -56423.6 95519 1.08626e+07 106322 -6212.6 42910.2
3 1.63054 -6.8618 -7.13835 65146.3 -40290.6 1.0878e+07 -125413 39908 22677.2
3 3.01965 -6.55175 -7.09087 -61167.3 -20668.5 1.07851e+07 119830 23893.7 1932.12
3 -6.18088 -5.04073 -7.14348 -248295 209843 1.08584e+07 11777.8 2337.52 40903.9
3 -6.67323 -4.60171 -5.66791 213102 -280145 1.08555e+07 33933.7 1722.51 36362.5
3 -5.02653 -5.91735 -7.14957 149147 -180722 1.08135e+07 158265 35229.3 43008.4
3 -4.49596 -6.12199 -5.68567 -199606 173125 1.08075e+07 -88962.2 29215.1 26620.2
3 3.57865 -6.35268 -5.66178 102331 -108308 1.08132e+07 -123685 -19221.9 52759.4
3 4.96208 -5.92296 -5.64047 -151180 119357 1.07812e+07 90682.1 -55600.9 57987
3 5.53114 -5.56314 -7.15728 192944 -329803 1.08154e+07 34938.1 43459.7 -9162.11
3 6.73221 -4.74969 -7.07416 -287214 164337 1.07702e+07 136793 28989.1 -16242.8
3 -7.96622 -3.08535 -7.1653 193459 -275491 1.08164e+07 -114911 27903.2 30686.3
3 -7.61218 -3.5535 -5.65422 -215489 146836 1.08269e+07 167586 25886.9 42587.5
2 0.00386209 -2.80268 -6.19238 667626 93766 -440868 -160903 580841 195439
2 -0.510531 -1.88422 -5.28486 896814 -162405 -362946 -97835.9 281263 -575264
2 1.29497 -3.36263 -6.03715 -302516 158120 61332.8 372053 -850717 33397.5
2 2.12011 -2.86452 -5.01741 28070.8 -286071 -27531 -252380 -690808 -597944
2 3.47714 -2.64599 -5.27371 152432 221052 -681908 432585 654963 319378
3 6.98692 -4.24444 -5.64531 243439 -200710 1.07549e+07 25331 -19009.7 53660.9
3 7.9974 -2.42593 -7.20378 119910 -198960 1.06505e+07 175112 35652.1 -29925.5
3 -8.45671 -1.70834 -7.13604 -95075.4 6620.2 1.08446e+07 247825 -4494.48 13774.4
3 -8.5831 -1.12541 -5.69676 83945.6 -170625 1.08764e+07 -221749 4570.21 3991.47
2 -1.57834 -0.695348 -7.22432 216981 273958 -212317 -22147.8 -193508 742024
2 -1.36066 -0.805669 -5.8179 -564188 707891 137514 -128900 -709812 246749
2 4.78029 -0.510154 -5.09459 173289 -752776 735347 143762 -91038.6 307890
2 5.29476 -0.737086 -6.41581 85292.2 103843 -322711 47249 204440 -669321
3 8.27993 -0.990644 -7.13966 -126924 74149.7 1.05547e+07 -220560 32877.1 -26693.6
3 8.48682 -0.420399 -5.64172 109708 -96021.1 1.05948e+07 223535 28758.3 -45996.7
3 -2.46001 -6.55915 -4.23682 -107017 81515.6 1.08436e+07 -136919 -11059.7 22353.8
3 -1.05687 -6.80419 -4.23179 -71689.6 69748.5 1.08574e+07 180624 -14070 -18546.1
3 1.53779 -6.88543 -4.12996 13215.6 21198.6 1.08875e+07 -115604 -20435.2 -991.882
3 2.89187 -6.44198 -4.15116 -93142.8 140790 1.08008e+07 49263 -24197.3 14035
3 -6.23604 -5.04961 -4.21019 -265006 198467 1.08658e+07 31663.3 19141.5 28254.7
3 -4.99165 -5.84688 -4.21061 120239 -186898 1.08046e+07 183947 14714.4 24183.4
3 5.49342 -5.65463 -4.21882 174445 -142726 1.07935e+07 -144382 -21216.9 38508.4
3 6.6308 -4.7646 -4.20796 -175424 219703 1.07535e+07 -56970.5 14244.3 10878.4
3 -7.95753 -3.02634 -4.18811 192426 -275404 1.08413e+07 -102064 46711.9 27161.8
2 1.58387 -1.88343 -4.08147 -520029 116311 396740 -96782.7 673896 490785
3 7.71205 -2.96092 -5.6493 -153190 195944 1.06827e+07 -133037 24549.3 13776.7
3 8.03055 -2.43227 -4.20274 238898 -196809 1.0716e+07 111949 36565.2 232.726
3 -8.59122 -1.72809 -4.15979 -84277.7 6332.76 1.08605e+07 246546 969.25 8750.91
2 0.373694 -1.29874 -4.34453 -745585 239705 636996 532341 238124 321802
2 -0.951691 0.461946 -5.16279 301014 -342587 215609 522724 593547 -166929
2 0.108451 0.0993182 -4.26105 226805 178424 -535532 -558684 -534158 -423002
2 2.46824 0.413486 -3.72472 336061 -123613 93555.3 852672 83599.2 -228396
2 3.81047 -1.43356 -4.59606 -409059 -436544 842517 -615367 -198543 -51264.3
2 2.68693 -0.959696 -3.85526 747595 225311 -729452 426977 -66862 -513063
3 8.44705 -1.04402 -4.14513 -10617.4 54835.8 1.06846e+07 -232778 74880.2 -21761.2
3 -3.06589 -6.47581 -2.7641 47231.1 -42323.1 1.08826e+07 206675 8094.18 10164.7
3 -0.466558 -6.78671 -2.71755 -67325.4 39832.1 1.08615e+07 -127445 -14625 -16851.6
3 0.957049 -6.84036 -2.65296 -111975 99976.3 1.08375e+07 91685.5 -24509.9 -28182.6
3 -6.72597 -4.69794 -2.74798 227434 -259817 1.08833e+07 41442.9 44093.8 20541.6
3 -4.45452 -6.07986 -2.73327 -197223 182535 1.08116e+07 -94171.5 10211.9 17217
3 3.52899 -6.42619 -2.75404 43368.7 -63108.6 1.08063e+07 -165871 -14874.9 -12875.5
3 4.86993 -5.91324 -2.78836 -184229 150571 1.07992e+07 18120.3 -18758.3 7317.59
3 -7.64317 -3.64122 -2.80203 -193076 146851 1.08557e+07 160099 45572.9 6940.06
3 7.02563 -4.2995 -2.73395 218127 -242074 1.07635e+07 -39595.7 57303.1 -929.973
3 7.7258 -3.02083 -2.73906 -161721 139043 1.07604e+07 -167180 67387.4 -1503.02
3 -8.63107 -1.14805 -2.75543 105130 -157035 1.087e+07 -222450 24385.9 -392.783
1 -1.57882 -0.0193263 -1.61924 -383909 -24096.3 -93202.5 -996107 380498 218505
3 8.43867 -0.469708 -2.68717 90897.6 -167807 1.07414e+07 227694 89579.5 -25713.1
3 -3.11514 -6.53379 0.230097 42764.2 -41668.2 1.07913e+07 202411 27402.5 -57761.1
3 -2.53897 -6.66357 -1.23757 -88320.7 115764 1.0836e+07 -140365 37882.6 -16159.4
3 -1.11007 -6.83531 -1.23413 -33231.3 94258.8 1.08468e+07 172400 26904.1 -19957.4
3 -0.541966 -6.7923 0.202978 17839.2 23871.7 1.08007e+07 -119898 49475.5 -60624.7
3 0.924426 -6.7582 0.177672 -28862.1 99581.9 1.08614e+07 95261.7 39230.4 -28420
3 1.52976 -6.71573 -1.32159 -10498.4 23210.6 1.08118e+07 -150096 -14874.4 -18922.7
3 -6.24422 -5.05375 -1.32274 -214831 239041 1.08528e+07 32220.4 63368.4 3984.37
3 -6.72742 -4.70133 0.183702 227269 -249535 1.08166e+07 28529.3 40915 -20710.3
3 -4.98792 -5.81491 -1.31369 179581 -135686 1.08283e+07 169408 27615 -2212.4
3 -4.42936 -6.0844 0.188145 -179923 177261 1.08237e+07 -106487 17601.8 -42894.6
3 2.97127 -6.44899 -1.28999 -123529 114129 1.08207e+07 43612.9 -17471 -8769.3
3 3.49179 -6.37875 0.252578 45661 -68002.8 1.0779e+07 -183018 13112.4 17940
3 4.89381 -5.98957 0.208327 -187267 139662 1.07501e+07 11093.3 24803.6 23595.1
3 5.3501 -5.61785 -1.29025 101541 -198014 1.07894e+07 -163511 13514.7 13920.2
3 6.53743 -4.73423 -1.25437 -256695 160716 1.07702e+07 -75523.7 46687.2 1948.68
3 -7.65042 -3.58314 0.190761 -193671 164395 1.07516e+07 144039 21487.6 -17575.8
3 -7.97879 -3.09837 -1.25105 232276 -225436 1.07926e+07 -106575 52624.2 7363.11
1 -2.36953 -3.09705 0.103313 1.05618e+06 170381 -911064 -175290 -169690 449532
1 0.158218 -2.72265 0.310093 -162624 -331771 861810 -726362 309226 -140565
3 7.01056 -4.30765 0.278229 210948 -251156 1.0787e+07 -28229.5 33856.4 -3305.14
3 7.7354 -3.06916 0.217836 -199800 132836 1.07616e+07 -163133 65583.2 -25522.5
3 8.04689 -2.50726 -1.23473 201563 -244900 1.07615e+07 110527 86918.5 -25942.5
3 -8.58025 -1.79433 -1.27149 -42864.9 60961.9 1.08404e+07 255349 39978.2 7071.56
3 -8.6105 -1.14434 0.194115 131862 -135697 1.08045e+07 -208802 25997.9 36419.6
1 -3.56218 -1.23634 -0.990684 -863876 1.14793e+06 151639 -188952 393314 -131731
1 -4.56784 -1.29231 0.00174097 189381 1.02477e+06 -884347 -24601.5 414584 -280395
1 -2.42808 -2.11085 -0.899053 984490 -773193 147635 -502063 -40967 413454
1 -1.21776 -1.44648 -1.34205 -520505 316556 248877 835241 -44561.4 -118920
1 0.0606059 -1.76571 -0.750934 -687.668 814347 -469926 407975 -728125 -51135.6
1 0.903383 -0.644661 -0.378587 551986 -577805 324409 -144484 499780 668306
3 8.39883 -1.11731 -1.2692 -71708.4 24000.3 1.07586e+07 -227873 85845 9787.87
3 8.45261 -0.524898 0.155583 84480.2 -87748.6 1.07667e+07 238204 77130.1 -7916.21
3 -1.16103 -6.85961 1.66746 -30241.4 -85520.9 1.07838e+07 187855 49480 -61203.3
3 -2.56286 -6.75558 1.64138 -94927.5 -24115.8 1.07756e+07 -197227 26539.8 -54780
3 1.54359 -6.75674 1.76699 38024.9 8330.41 1.08084e+07 -142057 72175.5 -44842.3
3 -6.23527 -5.07652 1.63625 -249790 217415 1.08022e+07 -24960.5 56760.5 15789.5
3 -5.03324 -5.8967 1.59642 166949 -258149 1.08256e+07 83190 33905.5 -27467
3 2.98077 -6.59375 1.73674 -84780 109509 1.07969e+07 52496.3 56520.5 12546.4
3 5.45522 -5.62781 1.60493 164601 -182209 1.07534e+07 -138660 10335.7 20950.9
3 6.59887 -4.74471 1.61393 -214084 163181 1.07924e+07 -38857.2 28587 4425.46
3 -7.92302 -3.0631 1.63134 167669 -246288 1.07443e+07 -145736 27103.5 -7783.94
1 -3.36965 -3.14121 1.1443 -941576 -104678 909203 434913 -315786 -12458
1 -2.74513 -3.42363 2.4119 328119 30466.5 -716054 -250277 791937 -120477
1 -1.0747 -3.28411 0.7936 -580772 242462 563386 -1353.99 825549 -218819
1 -1.3268 -3.54661 2.2061 -147550 -216718 -79162.2 180680 -1.04283e+06 239991
1 1.06603 -2.21465 1.30312 682009 300350 -584132 444107 26064.1 678461
1 0.836117 -2.51443 2.68587 309730 473493 -584799 453010 682334 -105304
3 8.02976 -2.53196 1.69621 187736 -251062 1.07723e+07 121952 59604.6 -23471.9
3 -8.53161 -1.77025 1.58939 -92740.6 51652.5 1.07448e+07 240432 18651.9 3422.11
1 -5.23568 -0.316046 2.00049 -10749.5 -171785 16753.7 232637 116430 -1.03869e+06
1 -4.48915 -2.29235 1.10186 59562.3 -1.04779e+06 957425 311015 -92515 -304428
1 -4.94792 -1.70255 2.30405 131094 404230 -629940 -208706 15579.5 778231
1 1.51609 -0.893732 0.841232 -366846 418855 245977 -377241 -518146 -690864
1 1.74367 0.11207 1.74464 214705 93345.3 -35426.9 184067 138673 -982115
3 8.31725 -1.17562 1.70716 -88386.9 28679 1.07465e+07 -231967 77173.9 -33168.8
3 -3.20383 -6.72754 3.12537 78772 -130717 1.08039e+07 184450 67528.9 76184.7
3 -1.19821 -6.85819 4.61531 -42484.4 65790.7 1.08355e+07 144500 62135.2 55551.3
3 -2.57431 -6.76276 4.60136 -107796 146752 1.08092e+07 -142969 71834.7 58905.3
3 -0.515532 -6.86557 3.17796 -11133 -82608.3 1.08033e+07 -111681 55263.3 27215.7
3 0.933678 -6.80956 3.13691 -61853.4 44800.7 1.08104e+07 129764 78871.6 -31420.4
3 1.49525 -6.76566 4.5843 29832.9 11819.5 1.0845e+07 -126732 75778.6 4582.28
3 2.95411 -6.61136 4.63225 -67254.4 113292 1.0837e+07 60649.5 81421.1 -29071.5
3 -6.26771 -5.18186 4.52184 -219421 237581 1.07644e+07 39310.9 32827.9 15721.4
3 -6.64781 -4.69955 3.04966 254684 -220795 1.0763e+07 31170.7 30366.2 26043.3
3 -5.073 -5.9503 4.58129 166285 -159961 1.07997e+07 182071 47417 38486.2
3 -4.4845 -6.19773 3.12823 -185677 126087 1.08185e+07 -157672 80261.7 30288
3 3.57737 -6.48929 3.11527 103030 -58596.4 1.08166e+07 -144245 61804.2 -15710.9
3 4.92642 -6.03329 3.10701 -115706 142080 1.0796e+07 36234.7 53242.1 9165.26
3 5.44527 -5.70556 4.58844 172067 -170619 1.08111e+07 -112343 54708 2306.62
3 6.62461 -4.88095 4.59929 -189800 177206 1.0794e+07 -24099.6 30707.5 27297.9
3 -7.56002 -3.58758 3.1016 -180040 174707 1.07562e+07 127535 41106 20293.1
3 -7.84975 -3.06519 4.56194 237384 -183229 1.07771e+07 -115179 30936.6 -1921.98
1 -3.22125 -2.86612 3.58375 795305 -472704 -130842 -210874 277618 -792494
1 -2.24365 -2.28862 4.49325 -488922 305614 551829 683860 -63329.4 454256
1 -0.863245 -2.50452 4.32256 -648123 595872 299637 -45410.2 659214 395307
1 -0.392947 -3.13393 3.12202 151636 -428995 198455 -516728 -856407 -476554
3 7.06309 -4.39713 3.15053 218663 -249084 1.07737e+07 -19639 30506.9 1730.3
3 7.80473 -3.16665 3.21519 -182769 149550 1.07771e+07 -144714 64494 -320.603
3 7.97685 -2.60371 4.65401 186628 -221256 1.08124e+07 126796 45381.8 -19372.9
3 -8.51081 -1.77213 4.58286 -16459.9 80242.2 1.07534e+07 242371 5647.54 -7676.77
3 -8.63988 -1.1777 3.07224 98964.7 -97451.4 1.07557e+07 -221915 63248.3 -2055.29
1 -4.33931 -1.93308 3.49583 -455114 863119 -87864.5 -20964 -715479 387513
1 -4.0633 -0.862564 4.43576 438202 -593377 587222 597896 441935 -63143.8
1 0.0572418 -1.46458 4.67745 808640 -122661 -520615 213384 -180618 -717091
1 1.10568 -1.40615 3.636 -602538 -7263.99 788754 -733134 -114186 335260
1 1.52915 -0.148812 3.14794 260719 -631062 501865 -173902 -144282 833541
3 8.31665 -1.2068 4.67146 -75685 57273.3 1.07412e+07 -234405 68902.2 -9330.16
3 8.34947 -0.578953 3.20679 82902.6 -113872 1.07278e+07 226376 73948.7 -29808.9
3 -3.18975 -6.61832 6.07796 20788.8 -32532.4 1.08649e+07 205361 54603 24279.3
3 -0.52596 -6.86711 6.11779 -31199.2 35217.1 1.0866e+07 -141864 49629.8 6310.92
3 0.932008 -6.80786 6.04891 -81558.9 85841.4 1.08576e+07 99204.3 87643.3 -30827.8
3 -6.72388 -4.71122 6.0965 231073 -237040 1.08134e+07 47876.5 20861.2 -13479.7
3 -4.54421 -6.22356 6.05635 -204419 200989 1.08228e+07 -80294.1 46564.9 3045.73
3 3.55202 -6.47647 6.04905 77703.4 -70715.3 1.08609e+07 -134964 72815.4 -26591.4
3 4.91464 -6.06635 6.07342 -143638 123704 1.08259e+07 41380.8 53605 4443.29
3 -7.66084 -3.60213 6.05906 -171288 178103 1.08124e+07 164702 272.357 -9388.19
3 7.0486 -4.49224 6.05701 215348 -227204 1.08278e+07 -3621.99 20186 1359.63
3 7.66811 -3.17031 6.06572 -192266 164206 1.08089e+07 -128012 37522.3 -24726.2
3 -8.6538 -1.12127 6.05227 132913 -111434 1.07599e+07 -228517 -5417.36 -11144.1
1 -2.77319 -1.1176 5.0074 216450 438990 -389063 -718402 -481211 -433551
1 -1.92723 -0.1147 5.51784 -128892 162464 156101 -973502 205228 187118
1 -0.481133 -0.257531 5.2606 640701 -731042 263183 717883 -204074 -71768.7
3 8.31227 -0.584892 6.02495 69912.3 -109606 1.07983e+07 234667 64595.6 -20529
3 -3.14133 -6.55687 8.9029 49879.3 -83768.9 1.08729e+07 193393 46495.2 36120.7
3 -2.54266 -6.60316 7.49568 -103824 82618.4 1.08713e+07 -146856 45537.5 12176
3 -1.12074 -6.7896 7.48859 -48937.5 31955.2 1.08739e+07 159648 57379.9 -1483.18
3 -0.528 -6.95574 8.96774 3535.83 -9097.79 1.08742e+07 -135073 64478 11996.8
3 0.937991 -6.86448 8.95664 -52233.5 21331.2 1.08814e+07 120901 72822 -24663.4
3 1.50054 -6.78639 7.55264 25733.5 -13650.6 1.08917e+07 -113817 76061.4 -31901.2
3 2.9438 -6.55244 7.5616 -86910.4 90459.5 1.08502e+07 86887.4 84190.3 -45372.1
3 -6.31983 -5.1193 7.58028 -260982 210387 1.08121e+07 29992.1 32819.6 -15863.4
3 -6.71398 -4.72873 8.96438 218216 -247107 1.08172e+07 25082.1 53737.8 -14759
3 -5.10244 -5.91092 7.5512 144304 -197956 1.08313e+07 163895 48383.7 7638.08
3 -4.49926 -6.04277 9.00889 -192337 159156 1.08401e+07 -107019 24234.2 8925.19
3 4.85402 -5.98128 9.00531 -132233 117558 1.0834e+07 65765.6 45824.4 -12421.3
3 3.52637 -6.423 9.0071 102761 -94564.6 1.0883e+07 -118226 68174.1 -36769.2
3 5.37782 -5.69332 7.53789 164392 -175665 1.08335e+07 -90453.1 44276.7 -14394.5
3 6.60259 -4.9092 7.54777 -179117 179267 1.08513e+07 -15068.8 47478.6 484.969
3 -8.10063 -3.12937 7.51412 202360 -244588 1.08397e+07 -119419 13244.8 -13023.5
3 -7.73001 -3.67368 8.96042 -196641 185468 1.0826e+07 137532 46110.8 -6881.81
3 7.00228 -4.39578 8.9961 209610 -225696 1.08555e+07 8911.07 50786.5 -10744
3 7.74264 -3.15394 8.9361 -191350 171249 1.0809e+07 -119132 42807.2 5900.85
3 7.96976 -2.62569 7.49275 188698 -232668 1.07698e+07 130016 44118.5 -20653.6
3 -8.50851 -1.75796 7.57576 -79459.8 39873.1 1.07963e+07 230298 8140.57 5388.72
3 -8.59807 -1.21496 9.0045 81860.9 -96070 1.08164e+07 -222073 19752.3 -5605.95
3 8.27081 -1.23545 7.50163 -88260.8 44362.5 1.07853e+07 -235105 63184.9 -22250.7
3 8.45966 -0.602795 8.93851 68437.5 -64833.7 1.07905e+07 236496 32619.1 -29132.7
3 -2.49932 -6.76355 10.4009 -77949.1 65006.2 1.08408e+07 -156608 40536.5 28464.9
3 -1.08575 -6.92674 10.3637 -19062.2 232.589 1.08856e+07 155028 63771.1 24198.9
3 1.52275 -6.83386 10.4231 61088.2 -45180.6 1.08973e+07 -105272 49817.5 -1658.63
3 2.95547 -6.56061 10.4083 -68614.3 90473 1.08959e+07 105518 75651.5 -24054.5
3 -6.27981 -5.13019 10.429 -232600 215664 1.08097e+07 -8435.21 40220.5 -2473.66
3 -5.00769 -5.81964 10.42 179040 -187326 1.08471e+07 135051 46103.7 10565.8
3 5.48939 -5.70574 10.4225 152244 -178958 1.08386e+07 -85088.3 55147.3 -27425.2
3 6.67577 -4.89118 10.4357 -195544 161103 1.08481e+07 -4686.49 43829.5 -11992.3
3 -8.08963 -3.17499 10.3915 192744 -214846 1.08031e+07 -129928 31766.4 7627.98
3 8.08627 -2.60986 10.3241 192211 -185277 1.0819e+07 150694 41321 -7430.61
3 -8.7217 -1.83403 10.4416 -103779 53662.2 1.08003e+07 220617 24400.4 -11593.6
3 8.36917 -1.17803 10.3854 -87168.8 99539.1 1.07904e+07 -219409 24004.4 -14231.4
3 -3.07241 -6.49844 11.841 68616.2 -83451.5 1.08518e+07 183876 48094.6 28691.7
3 -1.06138 -6.94174 13.3529 -20290.4 4018.86 1.0883e+07 156254 54304.9 32787.4
3 -2.48289 -6.73115 13.373 -94225.7 59561.2 1.08598e+07 -147965 49722.6 36510.1
3 -0.439592 -7.01048 11.9131 9773.87 -6097.83 1.08764e+07 -126009 64679.2 38851.1
3 0.972191 -6.95006 11.8842 -23737.1 34887.6 1.09115e+07 120124 61898.9 13068.5
3 3.10219 -6.74732 13.3331 -68604.5 83585.4 1.08821e+07 113640 46981 -3463.96
3 -6.74619 -4.75036 11.8649 215334 -254748 1.08105e+07 20176.3 32512.6 17081.7
3 -4.45625 -6.07588 11.8576 -169324 154824 1.08555e+07 -117967 47843.5 23747.4
3 3.55581 -6.49195 11.865 112625 -93259.7 1.09096e+07 -118332 62924.2 -27130.6
3 4.91779 -6.02364 11.8877 -125194 124402 1.08178e+07 70857.6 66134.5 -31292.6
3 5.42794 -5.67851 13.2613 179551 -169717 1.08398e+07 -71732.2 44318.6 -49662.7
3 6.65402 -4.90263 13.2704 -166989 183335 1.08404e+07 11650 50904 -35620.5
3 -7.74693 -3.7386 11.864 -213217 178165 1.08158e+07 127386 23916.1 9668.02
3 7.08496 -4.41682 11.8314 209242 -207052 1.08361e+07 22058.7 39061.5 -27385.2
3 7.92924 -3.24808 11.7828 -186159 184535 1.0792e+07 -119722 35380.6 -14989.3
3 8.18032 -2.61589 13.2079 182447 -226629 1.07807e+07 130258 54591.4 -7641
3 -8.67148 -1.19151 11.8629 81421.5 -108463 1.08064e+07 -233143 27177.3 -16762.1
3 -8.49965 -1.82656 13.301 -90837.2 83288.9 1.08369e+07 226757 32792.9 13875
3 8.52305 -0.589505 11.8659 65692 -109585 1.07718e+07 234575 41332.5 1224.16
3 8.53237 -1.2017 13.2967 -91123.4 48099.2 1.07819e+07 -238161 35840 -2541.2
3 -3.00585 -6.51287 14.7839 30393.6 -85227.4 1.08409e+07 203535 44308.2 33567.4
3 -0.399108 -6.9391 14.7479 -16184.8 -9478.92 1.08939e+07 -126553 45829.7 32173.2
3 1.02168 -7.0444 14.7907 -62024 26588.7 1.08939e+07 117588 33828.1 38264.6
3 1.62989 -6.88998 13.3848 77264 -36484.3 1.09163e+07 -112493 55589.7 21127.8
3 -6.1504 -5.0775 13.348 -256964 203816 1.08067e+07 -3582.25 38742.8 27842.1
3 -6.6979 -4.81724 14.752 220029 -235654 1.07945e+07 -593.551 28585.3 25092.2
3 -4.94709 -5.81814 13.322 154703 -202024 1.08416e+07 147229 36044.9 32584.5
3 -4.38638 -6.02956 14.7769 -205137 131659 1.08205e+07 -112660 51613.6 29813.3
3 3.66463 -6.57393 14.8026 98266.7 -100325 1.08825e+07 -120759 36558.3 -7245.52
3 5.01605 -6.01635 14.7581 -131508 131001 1.08599e+07 74445 59750.8 -47912
3 -7.93835 -3.14024 13.2289 182483 -223802 1.08081e+07 -126502 44594.5 18899.3
3 -7.66196 -3.7105 14.7136 -205540 194484 1.08198e+07 117325 31554.7 31277.7
3 7.11086 -4.35392 14.6869 193657 -240635 1.0831e+07 -7183.87 73587.4 -19347.8
3 7.95005 -3.18249 14.6618 -209464 164783 1.08291e+07 -133722 54504.8 11179.2
3 -8.57742 -1.20622 14.7566 56986.2 -89361.9 1.07895e+07 -239303 34669.6 29679.6
3 8.55855 -0.591601 14.7162 65735.7 -116875 1.07939e+07 239946 19238.3 -25639.9
3 -1.03082 -6.94432 16.1903 -45404.1 -2176.73 1.09026e+07 162408 48513.7 40153.1
3 -2.48654 -6.63152 16.1883 -117023 47495.6 1.08413e+07 -140969 45632.9 26305.8
3 1.6131 -6.87938 16.3082 28389.8 -44447.4 1.09086e+07 -112658 29328.5 35554.6
3 -6.26662 -5.15075 16.2247 -241550 216775 1.07787e+07 -10066.7 38617.4 22369.2
3 -4.96198 -5.80548 16.2585 154549 -188426 1.08348e+07 135062 51377.7 16948.2
3 3.00674 -6.68823 16.3158 -93521.8 90119.3 1.09119e+07 87635 43991.7 -10746.5
3 5.57161 -5.69805 16.1877 149971 -194773 1.08856e+07 -104169 58222.6 -38017.9
3 6.76201 -4.88456 16.1722 -221406 155822 1.08373e+07 -23380.6 53792.9 -34640.7
3 -7.9335 -3.16425 16.223 185419 -187082 1.08092e+07 -138141 23384.9 27293.3
3 8.05618 -2.59922 16.2481 182958 -183750 1.08914e+07 145758 25692.5 -34338
3 -8.51049 -1.81114 16.2091 -81135.5 84303.6 1.07644e+07 213252 28017.9 20692.3
3 8.46208 -1.19459 16.264 -81495.3 71890.7 1.07951e+07 -216670 40077.3 -24081.7
3 -3.08159 -6.49278 17.6689 59282.8 -91568 1.08492e+07 190979 58918.8 18952.5
3 -1.01304 -6.89758 19.1556 -12937.1 19238.6 1.09352e+07 154091 9568.66 36209.3
3 -2.45417 -6.65891 19.1453 -55392 61100.9 1.08804e+07 -148903 34188 26607.5
3 -0.391852 -6.96466 17.7532 10805.4 -8811.23 1.09228e+07 -117777 27702.8 41526.9
3 1.0444 -6.96119 17.8026 -27591.8 39001.3 1.09161e+07 113681 28293.9 24983.8
3 1.66957 -6.90877 19.1832 27604.1 -29143.4 1.09147e+07 -127156 31775.2 39254.1
3 -6.27795 -5.16181 19.1334 -258588 210336 1.07983e+07 15449.2 51928.3 1045.5
3 -6.78646 -4.78873 17.678 229451 -247136 1.08046e+07 8810.94 44044.8 6123.64
3 -4.9562 -5.79812 19.1133 149635 -195936 1.08246e+07 152430 55555.9 14949.9
3 -4.40702 -5.97932 17.6892 -191623 149150 1.0819e+07 -115439 66112.3 15435.2
3 3.06374 -6.70051 19.2036 -99413.9 67970.8 1.09321e+07 87009.2 39436.8 28425.7
3 3.64985 -6.45004 17.6634 70500.2 -105799 1.09148e+07 -125856 52197.1 7543.35
3 5.00388 -6.03196 17.6716 -157515 135752 1.09063e+07 74937.4 68932 -23673.6
3 5.56676 -5.80109 19.0892 178784 -172735 1.09339e+07 -81846 43240.9 -17286.6
3 6.65602 -4.8387 19.1645 -187248 194863 1.08718e+07 3579 46941.1 -40043.9
3 -7.73467 -3.72342 17.6757 -209494 188821 1.07792e+07 121526 23037.8 -5748.1
3 -8.05617 -3.24558 19.1836 193107 -230889 1.07573e+07 -119761 26099.2 6722.54
3 7.19665 -4.45316 17.6939 206474 -202959 1.08633e+07 24495.5 38456.5 -54391.3
3 7.89978 -3.15983 17.6587 -179669 193567 1.08666e+07 -115054 25614.9 -56238.8
3 8.07488 -2.60391 19.2154 179134 -220348 1.08534e+07 139253 22180 -26030.8
3 -8.67841 -1.27289 17.6626 68551.9 -76545.4 1.07305e+07 -229092 20659.3 7547.42
3 -8.51411 -1.85505 19.1772 -95707.9 41932.2 1.0735e+07 230033 28672 7569.7
3 8.47866 -1.20492 19.1961 -88481.6 51198.4 1.08062e+07 -229997 16503.3 -18977.2
3 8.4754 -0.546651 17.785 65661.5 -110132 1.07956e+07 242512 30244.9 -22055.3
3 -3.02958 -6.46978 20.5755 50833.5 -72394.2 1.08834e+07 194851 19569.2 22586
3 -0.417366 -6.93136 20.6332 -21974.4 2330.46 1.09135e+07 -127753 16755 46656.1
3 1.01394 -6.83595 20.6635 -75628.6 45778.3 1.09046e+07 98654.1 -2210.63 68464.6
3 -6.76418 -4.787 20.5933 211267 -271404 1.07933e+07 34823.4 41992.5 11531.2
3 -4.41937 -6.02265 20.5645 -182929 158071 1.08154e+07 -106684 49344.6 19361.2
3 3.62042 -6.52747 20.6341 86482.6 -99910 1.09629e+07 -129458 -489.018 23778.5
3 4.97552 -6.09739 20.6075 -141763 121725 1.08942e+07 73985.5 5766.04 -9948.74
3 -7.71145 -3.70221 20.635 -209050 163539 1.07561e+07 152583 52001.5 11724.9
3 7.86906 -3.14915 20.7068 -183539 165864 1.08601e+07 -130428 26555.7 -32691.1
3 7.07373 -4.40489 20.6912 211301 -216606 1.08881e+07 15412.8 32808.8 -23007
3 -8.68249 -1.20921 20.6106 75325.8 -139121 1.07506e+07 -226752 21129 11342.1
3 8.47415 -0.53493 20.6387 61440.6 -103446 1.08226e+07 242439 24746.3 -44634.1
3 -3.04407 -6.40285 23.5652 35623.8 -32182.4 1.08597e+07 206738 6343.09 -9578.71
3 -1.06229 -6.80964 22.0709 -50701.8 49451.7 1.0897e+07 159616 -3042.4 54087.8
3 -2.49182 -6.5197 22.0597 -109892 98319.2 1.08872e+07 -135658 27828.9 27461.9
3 -0.48276 -6.86295 23.4875 -48857.7 59849.4 1.08952e+07 -127156 -9452.83 32897.3
3 0.998179 -6.86884 23.5921 -79628.1 88940.9 1.0911e+07 78790.7 -23201.6 46244.2
3 1.5349 -6.7633 22.102 14426.8 -694.795 1.08896e+07 -123102 -11204.3 68756
3 -6.75936 -4.81611 23.4515 236273 -226988 1.07693e+07 58050 27162 17417.5
3 -6.25361 -5.19925 22.0177 -251843 216423 1.07987e+07 39316.7 56627.3 34093.2
3 -4.41661 -5.99354 23.5451 -201585 209970 1.07707e+07 -77787.1 17748.4 -1974.68
3 -4.99373 -5.83241 22.0594 142786 -169916 1.07929e+07 179117 35182.6 26271
3 2.96825 -6.64128 22.1482 -88887.9 89717.9 1.09513e+07 78801.2 -4050.34 31879.4
3 3.60481 -6.58611 23.5413 80849.5 -68208.9 1.09021e+07 -166735 1587.27 39629.2
3 4.94671 -6.07091 23.5334 -164326 140373 1.08539e+07 42813.3 306.972 12431.8
3 5.51038 -5.71997 22.0772 150830 -191901 1.08811e+07 -107818 2450.19 15115.2
3 6.57226 -4.79319 22.0956 -213733 183208 1.0871e+07 -28357.6 25242.8 -21394.5
3 -7.70971 -3.76609 23.4503 -167864 171697 1.07042e+07 174516 40204.5 28198
3 -8.05399 -3.18645 22.0745 223347 -239812 1.0723e+07 -105583 60590.4 36251
3 6.99377 -4.29706 23.56 209818 -240221 1.08463e+07 -16165.3 19600.4 -16109.3
3 7.77394 -3.08177 23.5851 -192609 147427 1.08858e+07 -145253 13384.4 -24919
3 7.99344 -2.54239 22.1226 192205 -232143 1.08745e+07 133839 21203.2 -24708.7
3 -8.60167 -1.80341 22.1228 -62406.9 41341.5 1.07663e+07 243061 40960.6 12093.7
3 -8.71452 -1.19512 23.5771 141942 -99322.4 1.07158e+07 -215264 -4276.62 -1821.92
2 -3.00788 -0.665663 23.3977 608137 -520860 198955 -808937 35621.9 235064
2 -1.73234 -0.187748 22.8579 16965.2 -4292 207393 987368 -33657.5 -76857.4
2 -0.520298 -0.930082 23.1683 286083 485635 -603152 552681 -558398 279466
2 0.621536 -0.25636 23.6465 253216 -565134 525226 -550162 621247 334159
3 8.32838 -1.19162 22.1174 -86496.3 41435 1.08216e+07 -232972 14214.5 -24519.7
3 8.47453 -0.535046 23.5317 72209.1 -102393 1.08193e+07 241233 13516.6 -21917.7
3 -2.46785 -6.49819 25.0353 -73029.6 40882.1 1.08131e+07 -142863 12086.6 -33253
3 -1.07148 -6.79022 25.0278 -15094.7 34488.3 1.08746e+07 153487 16021.3 -1914.84
3 1.52609 -6.7354 25.0701 2543.81 20247.9 1.08813e+07 -139478 -7053.73 5767.91
3 2.96687 -6.73022 25.0916 -105811 109309 1.08523e+07 55589.7 -22922.7 30099.7
3 -6.24801 -5.14091 24.9095 -240734 198890 1.07662e+07 -7970.26 -4353.16 -25007.3
3 -5.03201 -5.90936 24.9399 171584 -191650 1.07758e+07 142167 10956.3 -57320.5
3 5.43426 -5.68651 24.9948 168238 -192765 1.08404e+07 -121787 -9035.41 4694.37
3 6.57474 -4.75229 24.9966 -208863 181365 1.08727e+07 -30627.5 16762 -9959.64
3 -8.09881 -3.19482 25.0004 226243 -216877 1.07043e+07 -111215 10604.5 7122.09
2 -1.88156 -2.70034 24.2256 -685113 250658 490567 171388 641166 -362747
2 -2.04746 -3.29259 25.5743 53775 -416293 -212820 189689 -795286 553664
2 -0.622689 -2.18897 23.859 -654978 12383.9 773252 -716815 88832.6 -317519
2 0.515073 -2.35563 24.7601 758891 -190523 -477634 175961 379400 733658