ITEM: TIMESTEP
80000
ITEM: NUMBER OF ATOMS
2928
ITEM: BOX BOUNDS pp pp pp
-2.1765846846683036e+01 2.1765846846683036e+01
-2.2751452048851174e+01 2.2751452048851174e+01
-2.2915032400000001e+01 1.3324666840000000e+02
ITEM: ATOMS type x y z f_avestress[1] f_avestress[2] f_avestress[3] f_avestress[4] f_avestress[5] f_avestress[6]
2 -3.32656 -2.57765 -21.1446 -560301 -233046 837384 689014 143091 -436359
2 -1.9729 -2.91518 -21.1497 -1.10494e+06 283231 830445 -216461 -267206 -290697
2 -1.0769 -2.25819 -22.0769 829721 115665 -895101 362237 -349672 438122
2 0.181386 -2.08311 -21.4041 -438111 -78593.8 625164 -582062 734874 150011
2 -4.80434 -0.778851 -21.4085 116890 -723262 652427 479803 -534061 470079
2 -3.77465 -1.54348 -22.0512 342755 628272 -903321 -472047 489352 189235
2 0.973156 -0.948194 -21.6397 362304 -1.09437e+06 776997 -261188 277744 -199056
2 -4.05407 -2.42559 -19.91 508642 64235.8 -579699 -129896 -477806 799318
2 -1.27378 -3.1351 -19.9107 575396 60611.3 -627108 -116485 780785 457502
2 0.0634853 -2.6162 -20.0595 -155968 370665 -178553 157259 -997023 -264399
2 -4.96282 -1.30803 -20.0773 -117298 366174 -252796 133446 718967 -739170
2 -5.15792 -0.422356 -19.0085 183016 -120043 -62191.1 -470378 -111084 -973183
2 0.678038 -1.9763 -18.9738 497421 -425833 -44321.8 77882.2 -406829 -889548
2 1.58035 -0.268306 -20.5198 87220.8 548640 -602744 393505 -343409 773580
2 1.44087 -0.773684 -19.2214 -99930.5 747090 -636495 10221 673187 506982
2 -3.37209 -2.6101 -18.6931 -91723.6 363231 -271092 -498361 -918019 -29675.3
2 -1.96181 -3.00089 -18.6874 508787 -178450 -332579 420651 751188 -502086
2 -1.32584 -2.3253 -17.565 -1.12831e+06 504688 627279 -54201.3 -340522 357599
2 -4.4537 -0.612146 -17.7608 269858 -744535 483370 502828 121748 709079
2 -3.59032 -1.70819 -17.5843 -629355 39926.6 598632 738910 520107 111781
2 -2.3309 -1.52479 -16.9024 873101 -276782 -577898 -350061 -206503 -663873
2 -0.0162764 -1.81697 -17.7043 -417128 -52963.3 483382 -669670 278633 694062
2 0.308678 -0.505349 -17.1897 237764 493328 -701257 556592 380152 -576895
2 -1.99283 -0.250387 -16.4188 831250 -1.02596e+06 224666 -545483 15846.6 109508
3 5.10587 -8.00606 -10.6953 21196.8 -10787.5 178504 -102047 112956 71713.2
3 6.24493 -7.69663 -11.366 -217875 -33506.6 469365 -109553 -108751 -146605
3 7.50319 -7.06317 -11.3397 -224.763 523556 -606045 424650 -492566 -121898
3 4.44879 -8.16547 -9.50736 685362 336825 -529691 480196 -240502 105481
3 6.84777 -6.8755 -9.14951 609049 18670.5 -2.31656e+06 598608 1.04772e+06 787773
3 -5.1469 -4.78732 -8.99314 -205168 -307054 25347 139184 -225312 210856
3 -1.93294 -5.08576 -8.48847 -513077 -65655.2 -146276 -68381.4 355884 -266756
3 -0.665109 -5.3854 -8.05561 171385 -462521 -451441 77529.7 -352439 361588
3 7.87564 -6.52161 -10.0588 -168304 71829.1 -174025 -52442.7 -206536 336022
3 8.8056 -5.63123 -9.50981 -65147.4 -371175 2.32488e+06 -375411 -258996 -681845
3 -6.31811 -3.99155 -8.96915 -320464 -378888 -252305 230686 248732 -214104
3 9.74712 -4.65536 -10.1615 353621 1.08326e+06 -1.08632e+06 596299 123847 85658.2
3 9.94013 -3.42617 -9.29728 -105987 -438385 -310972 -278902 387894 -22856.9
3 9.53596 -0.947889 -9.93755 -88625.5 -162531 -8062.87 123825 -119766 820618
3 9.77291 -2.02179 -9.08413 85971.9 14606.3 456962 -232498 129909 1.25149e+06
3 2.99827 -9.92303 -7.50051 262309 -637156 59626.8 20662.9 -490697 -129575
3 3.02469 -8.57641 -7.47223 -383577 -232476 984250 -168943 853833 170914
3 0.687222 -8.51472 -6.27569 -1.81406e+06 -906703 -2.85103e+06 119455 881370 886861
3 0.770472 -7.21151 -7.13052 1.22773e+06 -412964 218229 -483083 849474 965792
3 2.20278 -7.87656 -6.49199 415626 923106 2.19568e+06 -341662 1.53586e+06 -323026
3 3.98904 -7.88963 -8.2587 -415281 75834.5 250132 -754839 -713824 -3516.28
3 4.99612 -7.27937 -7.43129 -200511 -412994 1.22448e+06 -532127 -2.28292e+06 -1.22521e+06
3 6.1764 -6.76317 -7.98499 963286 530995 -2.80244e+06 708064 -51757.2 -880579
3 -4.2899 -4.81522 -7.85034 -259623 496271 680053 -29004.1 -316368 201503
3 -4.96021 -4.48507 -6.64994 352162 544313 -26342 -342529 -171689 742102
3 -3.00953 -5.31467 -7.62214 -176633 168263 420487 -191394 309904 -1545.44
3 -2.7174 -6.06212 -6.45482 824970 491149 -117852 -437799 -80887.4 -294653
3 -0.388081 -6.45359 -7.20279 1.19502e+06 -315738 166109 134744 -777746 199339
3 6.97515 -6.32182 -6.88173 -835378 -636089 -1.90812e+06 -656467 476689 -36994.7
3 8.7809 -5.19853 -8.10738 -110724 -649441 613020 -467917 961796 1.27278e+06
3 8.06879 -5.51164 -6.89996 -477399 518243 1.34437e+06 -164528 740739 1.42873e+06
3 -6.60897 -3.27616 -7.79449 -90571 134279 -627758 -117864 72287.8 -68188.4
3 -5.78197 -3.37443 -6.65209 9850.8 1.00395e+06 -184243 -46481 -33417.4 -221053
1 3.14303 -2.78075 -6.65447 674433 -165735 -436553 -519104 415534 515510
3 9.66351 -4.04952 -7.95988 -647840 -2.186e+06 -250083 -804582 -416976 -566587
3 9.50718 -3.05747 -6.96463 314626 -150747 -228311 85959.8 -178654 277.738
1 1.15585 -0.737403 -6.56504 -439364 947242 -402640 -165574 618925 257896
1 2.37528 -0.465484 -7.21047 -1.02869e+06 933196 171261 -1622.09 -269128 131064
1 3.37306 -1.52538 -7.27764 799694 -884659 153069 -519184 32559.2 -261818
1 4.6604 -0.901372 -7.09242 -364490 264992 187408 1.00271e+06 -110422 358484
1 5.69053 -1.5178 -6.38198 364871 455583 -841886 457253 -136740 727177
3 9.72229 -1.75832 -7.62599 15764 -1.14245e+06 1.10708e+06 -20840.9 -247082 -1.55483e+06
3 9.47658 -0.596977 -7.04085 -25769.2 -865439 -243287 99547 59371.8 -1.32389e+06
3 -1.50296 -6.85223 -6.4012 1.1228e+06 380678 593262 -365299 -299365 -72928.1
3 -1.29751 -7.71286 -5.25432 -540815 201071 253308 306517 217212 -120874
3 -0.0128655 -8.33784 -5.10941 -858862 477619 -2.8631e+06 410856 158027 -220036
3 2.8336 -7.67366 -5.03727 1.37867e+06 62613.9 3.14008e+06 94869 -245531 14349.9
3 5.03712 -7.28342 -6.00762 -290406 -449894 302148 -399481 455076 363849
3 4.19463 -7.44461 -4.91386 703237 312140 1.62981e+06 371538 431217 523129
3 -4.64439 -5.08863 -5.4279 -289271 -73324.3 -332444 375209 -263612 -75107.2
3 -3.56597 -5.97338 -5.34802 33540.3 -361250 107407 230917 -174486 151276
3 6.27463 -6.64142 -5.73185 -594538 -489597 -4.74312e+06 -224191 -671572 -1.49212e+06
3 6.74723 -6.22022 -4.50428 -179162 -903023 -3.34288e+06 -365829 -138989 -699203
3 7.86694 -5.34445 -4.50828 -451651 -140581 -401542 -268693 -663917 -714649
3 8.41041 -4.76813 -5.68537 533085 1.31259e+06 1.22236e+06 784174 273380 855489
3 -5.69266 -2.57633 -5.48295 358539 793394 843112 -6935.9 58551.9 -962132
1 1.90274 -3.02507 -5.96281 -317668 -12423.9 300494 720310 -690529 43425.6
1 2.17748 -3.79969 -4.75604 -607855 385088 -46368.8 -508527 812502 -169659
1 4.19263 -3.42865 -5.86833 -1.15656e+06 560661 632625 128992 -97146.9 -395765
1 3.58846 -4.07583 -4.70677 679182 -262647 -453676 307526 -548378 512132
1 5.42968 -2.78508 -5.72218 -298779 10027.3 155832 -435919 -540436 -816773
1 5.98824 -2.693 -4.40461 -34510.3 -863220 37510.4 -200571 485164 893473
3 9.11517 -3.52257 -5.73688 181794 2.20536e+06 1.41978e+06 617959 96408.5 474944
3 -5.52585 -1.12843 -5.38056 157309 438589 589500 614667 -90971 -1.53426e+06
1 0.900252 -2.04143 -5.97529 424726 -680834 376962 591376 -192656 -642339
1 0.155203 -1.82085 -4.7533 116161 -47291.2 74382.5 -661287 106788 828828
1 -0.0446382 -0.394908 -4.60048 -45089.6 547700 -417465 550016 399501 -625996
1 6.4546 -0.687146 -5.45875 -124438 -1.23728e+06 758717 -517403 193872 -46968.5
1 6.56026 -1.40777 -4.23568 -204168 375418 -1.04168e+06 125289 -544206 -315249
3 9.70226 -0.4809 -5.49807 -53041.6 1.10464e+06 -18007.1 -162499 116029 -778381
3 -3.2464 -6.72294 -4.19257 -324146 -62785.6 90919.5 281780 -175656 171640
3 -2.12079 -7.60526 -4.10819 -387225 -144296 -190638 356247 -136459 -98377.9
3 -1.49292 -7.7467 -2.83591 -309524 219720 -332672 -40533.6 -35078 155729
3 0.670842 -8.08543 -3.8952 489907 295397 -1.73391e+06 -234724 -660764 -164210
3 -0.0783704 -7.97566 -2.75918 58750.6 -74398.1 -1.46947e+06 391894 -476045 -90120.1
3 2.08424 -7.9024 -3.86284 775457 259828 2.12488e+06 408462 -836099 -109904
3 2.6857 -7.89492 -2.58728 -210342 -98194.1 1.25224e+06 -268950 -35397.8 -24341
3 4.78998 -7.36819 -3.60563 683741 40129.7 723412 213221 918298 581666
3 4.08125 -7.69553 -2.45847 -510660 127595 425783 -58433.1 510179 328868
3 6.03414 -6.71604 -3.42184 159722 358295 -2.22519e+06 379155 647213 274659
3 -5.21228 -4.63847 -4.20253 179386 -322712 147791 45882.7 37365.9 -372464
3 -4.80811 -5.19196 -2.97825 -159970 65474.5 404570 142443 -32378.7 -86613.5
3 -3.80558 -6.19072 -2.99036 76150 -169654 208264 115508 -97751 -65886.5
3 6.64232 -6.43714 -2.21006 415795 -88863.5 -1.40681e+06 118716 10862.5 -112581
3 8.27033 -4.83805 -3.22799 176593 -518954 -290480 -107571 -574866 -859834
3 -5.72015 -3.3298 -4.24719 -170400 260859 1.05959e+06 379888 17030.8 -617795
3 -6.06633 -2.71136 -3.02294 144233 -1.40891e+06 609729 73242.4 -144389 24797
1 0.411031 -2.55594 -3.5715 104153 322077 -473631 16474.9 -587793 780223
1 1.46918 -3.51386 -3.56969 219715 17413 -525177 -42635.3 684659 -832921
1 2.09213 -3.52104 -2.2883 -777003 -646062 649869 625443 -299355 444572
1 4.21472 -4.09776 -3.44381 423547 -27110.9 -857224 -34751.7 -473361 -486241
1 3.45209 -3.88543 -2.19242 -1.42543e+06 172083 867290 -155144 -67335.9 273568
1 5.44397 -3.34876 -3.30104 -969561 -24793.2 70784.1 144121 934219 315893
1 5.46809 -2.7039 -2.01712 -256481 -54772.7 201285 -435133 -912907 -282316
3 9.29854 -2.79034 -4.48995 325997 1.54916e+06 2.24116e+06 638111 176265 343459
3 8.97393 -3.56813 -3.2477 -208536 123732 1.04319e+06 -247642 -440784 -696628
3 -6.12399 -0.606958 -4.16867 -122235 -1.96772e+06 -1.51781e+06 -526864 256792 942832
3 -6.37491 -1.36378 -3.01302 -133176 -1.52548e+06 -551741 234365 215932 433644
1 0.177614 -0.555169 -2.12365 4775.13 -1.23748e+06 827931 -519952 200286 -111207
1 0.380792 -1.93125 -2.25807 -215400 -1.07704e+06 695664 519010 418211 -405308
1 6.73882 -0.843098 -2.97318 -206710 440152 -547688 616757 448823 -697166
3 9.72219 -1.37594 -4.35922 119887 1.82691e+06 1.5771e+06 159326 242592 -52093.9
3 9.99274 -0.821892 -3.03506 243492 920754 1.52608e+06 375632 -21035 -118817
3 -3.35339 -6.64717 -1.74202 -197036 123891 223340 53727.1 -22610.4 91787
3 -3.99572 -6.25677 -0.527941 121098 -177663 198911 85508.6 -106905 10645.2
3 -2.14501 -7.31902 -1.66835 71708.2 -184331 -263968 178726 -100226 -15534
3 -1.60727 -7.63624 -0.405211 -219603 216145 -289553 -115310 -78677.2 76931.6
3 0.500592 -8.13058 -1.47649 -527260 104445 -1.00323e+06 -324558 -495796 -32060.4
3 -0.226859 -8.02235 -0.299744 12182.6 -57654.3 -722607 250662 -242783 11738.8
3 1.91079 -8.13577 -1.40326 -527328 126291 549593 161980 -428000 25217.3
3 2.47165 -7.99552 -0.129086 -182189 -75572.7 149180 -250661 -150211 -65571.7
3 4.64822 -7.48227 -1.16467 161305 -50132.4 350491 -57219.1 410423 142076
3 5.93133 -6.8668 -1.02254 -79054.9 190441 -712589 60371.2 236452 168223
3 -5.34314 -4.72165 -1.77878 123005 -443718 347208 104461 -91938.4 12466
3 -5.07903 -5.347 -0.561672 -123580 65284.2 361229 66287.3 -65686.2 124222
3 7.68891 -5.45454 -2.0815 16506 348281 -232361 151912 -412343 -490343
3 7.85959 -4.82574 -0.844439 203780 -269224 -72219 -25358.1 -386493 -533742
3 -6.01746 -3.45812 -1.80565 -127199 -313983 518869 168847 -78942.1 235203
3 -6.41035 -2.84781 -0.608675 180159 -186972 308481 -150028 -112235 199576
1 1.45601 -2.52827 -1.47565 196774 437963 -1.26282e+06 -342529 -200269 -263754
1 3.70418 -2.06943 -0.457919 729297 -699568 223658 685007 235751 -145655
1 4.25491 -3.03878 -1.32264 621165 316911 -716935 396336 662641 -311477
3 8.5336 -3.56798 -0.791796 -94867.5 95110.8 876552 -143397 -262680 -609692
3 9.10121 -2.93472 -1.98954 161021 -479559 949597 29357 -332794 -769519
3 -6.75193 -0.679083 -1.81727 29561.6 -129654 -491988 -121486 73658.4 28537.6
3 -6.84393 -1.48395 -0.631077 -28290.4 -40965.5 -186235 67801.3 88880.8 185326
1 2.28289 -1.80288 -0.622036 -184823 300909 -115131 -922325 -446069 -335843
1 2.08712 -0.402492 -0.532839 -319636 222687 224286 933601 -93676.7 264830
1 4.38366 -0.757415 -0.336673 -1.00152e+06 1.07421e+06 168100 8437.23 -286113 117320
1 6.10893 -1.47229 -1.84138 432146 -1.03125e+06 621469 -343334 -340662 59266.3
1 5.59971 -0.448792 -0.984261 -379432 1.0366e+06 -402620 -114979 623760 178360
3 9.45086 -1.58413 -1.86199 -32158 -358769 1.33197e+06 -186727 65734.9 -422105
3 9.15666 -0.937636 -0.652761 95583.7 -967961 593044 236574 -67181 187596
3 0.317142 -8.18416 0.947538 -189194 65358.7 -613339 -239113 -266216 -18820.5
3 1.69986 -8.15664 1.05383 -216804 94035.8 -122206 198891 -286404 12026.3
3 -3.50432 -6.68698 0.734053 -190382 171477 159824 -6487.46 -52495.5 73548.6
3 -2.28452 -7.4012 0.769904 86000.6 -150596 -219948 153565 -106877 9690.58
3 3.80423 -7.67955 -0.033534 -380300 127109 68278.5 37133.4 102582 106739
3 4.27487 -7.43898 1.26629 180082 -66435.2 29193.1 -49638.8 74196.3 -43860.4
3 5.40589 -6.64436 1.37255 -52521.7 187403 -140525 100546 17560.9 12431
3 -5.49892 -4.77307 0.686898 179787 -153467 276931 -32448 -117504 96336.2
3 6.21768 -6.34288 0.261384 294981 -326.857 -342036 89043.8 -4850.69 -105335
3 7.18247 -5.32876 0.283033 31410.4 328999 172031 107022 -169549 -265524
3 7.36461 -4.70481 1.54361 219472 -171381 178355 39701.6 -147657 -193960
3 -6.13503 -3.51264 0.633636 -95920.9 96054.3 274196 96364 -94708.6 195770
3 -6.50694 -2.92334 1.85889 181355 -40986.2 283216 -184661 -88155 104753
3 8.7061 -3.01648 0.493274 182912 -662344 545352 29221.2 -148422 -266301
3 8.20852 -3.60663 1.66067 -100088 125544 488668 -127185 -90257.9 -167539
3 -6.95451 -0.811259 0.61201 57372.7 122862 -25276.5 -138714 -37584.6 -36099.6
3 -6.90425 -1.56133 1.83302 -20854 137529 137082 88169.4 -27498 64168.2
3 8.90334 -0.926199 1.73289 64990.8 -278811 13934.8 232426 -22701.9 220356
3 8.94011 -1.6577 0.538591 -57274.2 -524295 324941 -354329 27269.5 61969
3 0.0991619 -8.41011 3.36852 -123398 58090.1 -446518 -215579 -200418 -24506.8
3 2.25895 -8.24306 2.3274 -36349.7 -70388.7 -242037 -216244 -173985 -78215.3
3 1.47771 -8.49965 3.48469 -135645 58926.4 -304910 196861 -226077 3851.13
3 -4.0116 -6.26065 1.95277 139955 -139005 148565 50123.1 -97684.5 9333.56
3 -3.55631 -6.71012 3.2137 -151671 157111 128850 -64051.4 -80528.1 32025.5
3 -1.78177 -7.7869 2.01745 -169626 163478 -226962 -122957 -111725 11543.6
3 -2.41335 -7.54892 3.22973 135813 -139923 -161320 128562 -108259 -3509.63
3 -0.469994 -8.20134 2.11194 18601.3 -45798 -479094 216004 -182534 14901.3
3 3.58369 -7.82795 2.44449 -220689 164267 -150875 107662 -109453 -22393.3
3 4.06871 -7.54293 3.75186 156349 -85360.3 -156795 -117646 -118799 -102533
3 5.2087 -6.70133 3.84705 -130558 195822 -54831 82568 -100886 -96266.4
3 5.83659 -6.22842 2.67916 221557 -36994 -14480.7 27519.9 -49497.6 -104392
3 -5.55816 -4.80292 3.15838 224638 -151592 189558 -55111.8 -88639.5 37875.4
3 -5.05313 -5.31526 1.91815 -166762 180126 215975 40980.7 -69928.4 94388
3 6.67443 -5.09333 2.72194 -59809.5 239092 201602 46561.5 -76413.8 -148473
3 6.928 -4.50387 3.96867 212579 -189562 163343 59927 -67730.4 -70519.2
3 -6.19546 -3.55153 3.11818 -122125 166135 252086 105111 -37134.1 102930
3 8.34894 -2.95847 2.92991 192029 -263766 283221 123881 -43970 25347.5
3 -7.01726 -0.853715 3.04288 45223.6 92079.6 248957 -176689 -32804.5 -58020.3
3 8.80761 -1.63333 2.97664 -30911 -104049 -45231.2 -285768 5592.42 150782
3 -0.567274 -8.31114 4.59468 59387.4 -48951.5 -387063 200039 -166221 26296.7
3 -0.0552679 -8.56843 5.87373 -79474.8 77131.9 -375991 -198131 -182270 -34264.8
3 2.1057 -8.52142 4.76912 11409.9 -66124.5 -329477 -216956 -212521 -64948.2
3 1.31911 -8.58924 5.9509 -72717.8 48324.4 -338860 203094 -220620 27013.6
3 -3.62405 -6.78828 5.66492 -119190 174064 106359 -93649.7 -95502.4 10504.5
3 -4.16162 -6.35287 4.42874 160261 -104658 127344 26127 -113472 -9063.26
3 -1.92783 -7.95596 4.53513 -112757 136172 -176410 -132618 -110338 16753.2
3 -2.537 -7.63623 5.7408 144848 -90140.6 -142875 89699.6 -105667 -2661.96
3 3.33177 -7.88376 4.90693 -197629 144834 -235516 129697 -207657 -51625.8
3 3.76812 -7.48591 6.12474 120943 -170742 -230489 -154929 -203051 -80143.9
3 -5.09294 -5.3317 4.43302 -164513 242465 166171 6918.05 -54377 61621.2
3 -5.33371 -4.63018 5.64938 226617 -179255 167526 -57163.4 -79650.8 15139.6
3 5.38947 -6.07268 5.06202 185859 -164506 -51949.2 -56043.2 -105903 -83453.4
3 6.33666 -4.97209 5.16492 -140442 174379 124080 -27356.6 -45313.3 -116211
3 -6.33175 -2.86982 4.33808 155449 -88910.5 302790 -188445 -16664.3 25246.1
3 -5.87155 -3.35134 5.58937 -135079 150072 326194 75660.9 21148.5 72472.8
3 7.78922 -3.47481 4.12355 -118948 140813 197559 -139953 -7154.29 -29592.5
3 8.02336 -2.79128 5.31547 166200 -180543 92263 169915 159.776 59273.3
3 -7.05783 -0.912343 5.49762 63199.3 9702.85 378602 -181757 17925.6 -74010.2
3 -6.90401 -1.59518 4.26698 -61751.5 115063 324246 112125 4060.28 -5717.69
3 8.83947 -0.847254 4.14483 26979.2 -49384.5 -157798 209085 14905.7 223593
3 8.53793 -1.50094 5.3489 -36588.8 3406.07 -204220 -253429 30874.7 131988
3 -0.762712 -8.61292 7.06969 115859 -56399.9 -331393 141093 -139616 6732.48
3 1.94722 -8.4552 7.228 35764.7 -52621.6 -345128 -204780 -214611 -63354.4
3 -4.16369 -6.32911 6.89774 168326 -146041 112436 46623.1 -120604 -22889.1
3 -1.9945 -7.97891 6.99336 -56401.3 131096 -138618 -145394 -124946 -41285.7
3 4.86438 -6.63159 6.24557 -183997 173498 -131464 34481.5 -143815 -117836
3 3.18634 -7.89379 7.28876 -157769 163617 -257407 140259 -222043 -27328.3
3 -4.94912 -5.1792 6.89852 -167432 187880 145830 20551.8 -33216.8 55355.1
3 -5.32493 -4.62426 8.11381 203515 -224833 177251 -4440.89 -68367.6 3844.93
3 5.42677 -6.19307 7.42981 219793 -188150 -117938 -40299.4 -176416 -119478
3 6.42811 -5.25708 7.57348 -183952 177882 11763.2 -35434.1 -100357 -130625
3 6.81501 -4.5396 6.43757 228825 -209283 93846.2 61326.9 -79094.5 -66626.4
3 -6.32086 -2.78535 6.80748 160198 -137271 365135 -134730 -10471.8 -2238.17
3 -6.15857 -3.45927 8.03375 -152224 133677 371217 119460 21285.8 51106.7
3 7.64795 -3.4285 6.47778 -130791 122538 -2773.31 -156848 -23491.3 -35712.2
3 8.06219 -2.91996 7.68849 143983 -76711.9 -73925.3 170848 -21679.9 17340.7
3 -7.10742 -0.89118 7.98048 77570.2 -7053.04 429960 -176109 14413.3 -92369.6
3 -6.9024 -1.51614 6.75944 -46157.1 79244.3 411581 128312 36175.4 -23087.5
3 8.67172 -0.843578 6.58551 -3426.54 75708.5 -252583 228113 28180.7 156258
3 8.25663 -1.54311 7.76125 -37845.8 96677.3 -329208 -237890 20049.2 54882.9
3 -0.125529 -8.86581 8.29911 -42177.9 54863.1 -291340 -179303 -154330 -87050.7
3 -0.797584 -8.7989 9.54579 32854.7 -73783.3 -285136 198600 -154577 -21943.2
3 1.25829 -8.75225 8.40426 -5911.77 27412.7 -326340 211428 -185571 30210
3 1.9802 -8.69678 9.64541 56327.2 -29714.5 -286620 -181435 -210858 -91378.4
3 -3.67898 -6.80464 8.13972 -140207 160695 80273.2 -58058.7 -83328.6 7894.05
3 -4.12651 -6.26943 9.3809 131456 -185524 103282 90877.3 -88446.2 -6242.78
3 -2.65738 -7.77266 8.21298 119194 -117937 -114311 105678 -125477 -29178
3 -2.0464 -8.14107 9.47922 -147719 111909 -116732 -80262.1 -119201 -36124.9
3 3.80934 -7.60882 8.53537 188398 -130392 -241631 -143374 -231241 -95256.4
3 3.30697 -8.15024 9.71113 -119642 181294 -275068 154330 -242384 -51608.5
3 4.98367 -6.82658 8.61274 -156772 212750 -172196 57201 -196465 -130337
3 5.6149 -6.51122 9.83806 242572 -185436 -178788 -29475.1 -193787 -144965
3 -4.99653 -5.16193 9.36308 -232329 185918 156755 41755.2 -7306.93 69384.1
3 6.53392 -5.47252 9.95074 -161801 199245 -77356.5 -43806.9 -111004 -162609
3 6.93489 -4.82286 8.77519 187214 -162659 -13178.8 98239.4 -127810 -85197.2
3 -6.59842 -2.85185 9.27238 147018 -117059 426020 -141877 -6173.29 -42844.8
3 7.66087 -3.61057 8.84419 -159796 170913 -151979 -140311 -43397.4 -75540.9
3 7.58602 -2.90727 10.0433 143462 -89150.9 -209313 148145 -61583 -20950.9
3 -7.14991 -1.53265 9.23228 -60175.9 121739 454226 155007 6203.98 -44750.8
3 8.09453 -0.855472 8.93554 27807.6 110405 -350393 204467 10453 81832.8
3 7.75168 -1.52696 10.1286 -23767.5 71398.6 -426216 -226840 8768.31 -37628.1
3 -0.138763 -8.98101 10.8445 -139068 92754.3 -235240 -156438 -208820 -46953
3 -0.855881 -8.78973 12.0753 14855.1 -89712.9 -198300 190571 -191863 -18080.4
3 1.28877 -8.81631 10.863 -80329.1 45920.3 -315535 218645 -237808 -41397
3 1.98624 -8.67117 12.0894 9295.97 -35144 -251544 -236679 -302685 -84261.6
3 3.29719 -8.2533 12.1033 -179006 162395 -303109 157172 -287790 -106575
3 -3.71827 -6.82545 10.6074 -237872 138634 88083.9 -59037.1 -49545.8 41419.5
3 -2.62774 -7.70382 10.6878 56107.7 -155915 -99584.7 152184 -114902 3402.51
3 -2.09471 -8.14494 11.9957 -183059 97527.2 -63637.4 -98932.8 -136036 55811.9
3 3.97772 -7.91424 10.9156 174506 -129265 -247532 -159042 -247668 -145718
3 5.15386 -7.16408 11.0133 -176655 216894 -236217 49924.5 -218585 -148100
3 -5.43465 -4.53908 10.5508 188558 -221464 246362 -3038.83 38745.4 -12041.6
3 -5.05088 -5.11162 11.7878 -219833 197091 218351 29757.2 63562.6 16609.7
3 -4.20978 -6.23973 11.8124 117041 -167002 157871 79632.4 18129.1 29271.5
3 6.79107 -4.85269 11.1777 174583 -171314 -127599 69494.8 -96326.1 -104642
3 -6.24672 -3.41445 10.5109 -164514 166835 400090 135895 25934.6 -14786.3
3 -6.499 -2.68107 11.6731 177678 -106582 452181 -144478 66380.9 -90766.7
3 7.45283 -3.61259 11.2197 -123617 127567 -259334 -170772 -31662 -113979
3 -7.2537 -0.762486 10.4056 52628.6 20277.2 454232 -174299 7166.12 -91953.3
3 -7.02623 -1.39964 11.6611 -64263.3 137659 416042 162034 -5090.51 -97642.9
3 7.84825 -0.876475 11.349 44813.8 35322.1 -443881 179567 5871.5 4199.8
3 -0.113221 -8.81038 13.3393 -144069 80311.8 -126299 -180370 -248703 25391.1
3 1.31711 -8.90161 13.3177 -83581 17963.2 -270207 200077 -315265 -25911.1
3 -3.67753 -6.58414 13.0909 -166732 162907 190504 -85574 -16702.8 62835.2
3 -2.63541 -7.52811 13.1889 74842.3 -94036.6 50807.6 103201 -62227.7 21265
3 3.98969 -8.08884 13.361 113927 -159731 -285744 -190661 -287473 -147292
3 5.09021 -7.18221 13.4542 -252346 223388 -328967 31234.7 -251226 -164882
3 5.57144 -6.61568 12.2646 213787 -187824 -271839 -59764.4 -187244 -154222
3 -5.5725 -4.50552 12.9281 215519 -159470 306162 -39869.3 135193 -43820.8
3 -5.03271 -4.84324 14.1644 -117909 222121 304231 -31603.7 73967 -38218.3
3 6.31229 -5.46056 12.3454 -203803 206198 -179881 -68350.7 -102799 -155663
3 6.5511 -4.8186 13.5794 223445 -173239 -207887 92819.5 -121444 -113285
3 -6.72925 -2.6482 14.0992 180669 -51784.9 400963 -173132 92554.5 -143371
3 -6.32012 -3.29666 12.9247 -132973 201851 403538 103081 75494.6 -106455
3 7.28867 -3.6053 13.6434 -104305 132458 -309614 -139174 -27470.6 -142655
3 7.60699 -2.95714 12.4412 119966 -59421 -280779 151347 -55857.2 -71892.7
3 -7.4408 -0.743156 12.8253 74490.3 64534.3 385602 -192654 9869.52 -95468.8
3 -7.33277 -1.40596 14.0575 -55398.9 176110 321620 145627 15425.2 -125149
3 8.08085 -0.948245 13.7271 32276 85355.5 -520829 172078 26750.4 -40671.4
3 8.02735 -1.63305 12.5073 -14414.7 60031.2 -485217 -195626 20637.6 -76739
3 -0.703668 -8.24196 14.4797 35117.1 -48523.5 -51144.7 149819 -173048 18003.1
3 0.0358692 -8.1851 15.6692 -80796.8 56738.6 11995.6 -172240 -233117 33254.2
3 2.0736 -8.82748 14.5734 -37210.1 -47592.1 -221807 -237112 -337141 -65197.4
3 1.42747 -8.57221 15.7883 -51149.4 16717.8 -189050 204100 -284054 -17255.2
3 3.47998 -8.58443 14.6213 -229659 168038 -334105 147290 -328609 -110971
3 -3.46098 -6.11948 15.5082 -79416.2 178802 261988 -108473 33925.2 19222.7
3 -1.93414 -7.60773 14.4274 -110296 118444 89321.5 -115079 -96817.6 59833.5
3 -2.37489 -6.97197 15.5746 133161 -52708 200067 52562.5 -8282.74 17778.1
3 4.25593 -8.35335 15.8797 108530 -176761 -320834 -214103 -335718 -167300
3 5.35063 -7.45917 15.9674 -293126 202436 -380875 20326.6 -282498 -205288
3 5.54083 -6.71268 14.7565 203507 -243509 -329263 -84690.8 -233752 -180775
3 -5.48074 -4.21229 15.3639 237319 -96734.4 382121 -89696.7 143260 -80019.5
3 -4.08078 -5.86195 14.2423 186387 -100369 274290 21064.5 70202.4 26647.6
3 6.27199 -5.53417 14.7882 -220601 160552 -300669 -110206 -166036 -219454
3 6.80682 -5.04708 16.0329 200825 -192377 -306095 107520 -171180 -214462
3 -6.4149 -3.17642 15.3572 -90702.3 255107 374953 54205.4 85781.5 -135061
3 7.41388 -3.78105 16.0212 -109379 108443 -463297 -143211 -63931.6 -232914
3 7.58954 -3.03207 14.8549 100925 13419 -357303 179643 -46701.8 -97713.8
3 -7.55638 -0.706296 15.2616 60217.3 73014.5 224807 -206585 9232.97 -90996
3 7.96303 -1.69009 14.8678 -37606 147911 -547444 -179532 20175.1 -75784.8
3 7.95584 -1.05898 16.0831 35205.3 150294 -574404 169353 21206.5 -50266.1
3 8.49802 -0.118427 -10.4311 -120472 -414126 147825 295569 -122194 -2351.54
3 -0.519003 -7.78272 16.8843 100501 -61245.2 116893 119939 -127506 45256.1
3 0.0643721 -7.99334 18.1248 -48187.5 57854.4 147589 -169199 -182049 22145.7
3 1.40849 -8.393 18.203 1161.47 14734.4 -65087.8 240947 -241897 20887
3 2.15061 -8.57779 17.0042 848.447 -31694.3 -149999 -222831 -321980 -47842.9
3 3.57566 -8.56711 17.088 -223978 178460 -319487 195297 -326117 -103056
3 -3.63211 -6.09859 17.9328 -133526 210493 351392 -122663 57783.6 -12418.8
3 -1.79344 -7.21734 16.8493 -62211.1 124307 217983 -146995 -52295.7 18061.9
3 -2.38731 -6.79864 18.0289 109245 -65312.3 304039 50847.6 32784.3 37132.3
3 4.2206 -8.25048 18.3053 142750 -180592 -299067 -215105 -359981 -104676
3 5.41785 -7.4672 18.3845 -269174 253087 -393444 12679.8 -305561 -227997
3 6.0327 -7.0344 17.1709 213897 -287685 -363396 -76201.9 -292664 -218078
3 -5.63149 -4.18019 17.8221 192089 -136132 435758 -49685.7 127897 -58564.7
3 -5.03628 -4.63504 16.6259 -127726 244347 402150 -47112.3 94849.6 -60119.2
3 -4.03864 -5.58675 16.6655 183506 -70976.6 342767 12554.1 104342 3238.42
3 6.74451 -5.78688 17.1901 -237668 149728 -363177 -103688 -201279 -287491
3 7.15202 -5.19536 18.3954 205934 -92321 -378327 164315 -219802 -304847
3 -6.86145 -2.60516 16.5264 187513 -46721.7 359616 -172886 95212.9 -135926
3 -6.57806 -3.15705 17.7856 -127080 182620 382805 91425.5 85687.4 -118640
3 7.70769 -3.89956 18.4523 -85385 189589 -620437 -113508 -44718.7 -290022
3 7.79711 -3.16903 17.2651 115583 7130.14 -530337 174524 -45478.7 -184711
3 -7.75434 -0.700515 17.6991 102646 -44021 103969 -206880 1295.68 -98775.2
3 -7.42868 -1.3443 16.4808 -33972.5 173755 167275 154499 18586.9 -120152
3 7.86743 -1.77444 17.3033 -14599.3 134037 -639212 -151279 37021.1 -137673
3 2.02165 -8.3999 19.4638 33849 -26083.3 -27426.7 -211332 -292023 2801.18
3 3.37607 -8.0568 19.4935 -179790 195947 -269101 191851 -335699 -81013.4
3 -1.89081 -7.13193 19.2943 -88389 135326 355457 -147925 -42976.7 -2419.42
3 -0.681113 -7.82869 19.3122 119477 -88245.4 249744 131210 -93023.5 77104.7
3 5.68484 -6.74789 19.5717 314295 -163052 -344528 38746.7 -360963 -282458
3 -3.90131 -6.21579 20.4034 -117216 184792 406766 -81421.3 45456.9 -18226.9
3 -5.32949 -4.73216 19.0663 -180262 240440 465739 -1812.61 79980.3 -50093.8
3 -4.27426 -5.70822 19.1284 132458 -96329.2 386866 36293.9 115606 36225.7
3 6.63687 -5.69877 19.6073 -154762 265658 -449542 -12494 -225308 -381541
3 -6.06667 -4.40137 20.2099 162014 -182877 502323 -26030.2 124264 -41959.2
3 -7.01929 -2.5888 18.9948 163921 -153115 383509 -132837 75917.9 -140057
3 -6.90475 -3.28432 20.175 -141001 129406 422375 133282 63623.9 -109169
3 7.80489 -3.15904 19.6793 102219 135336 -710457 204527 -37826.3 -216817
3 -7.57476 -1.33205 18.924 -43139.6 45655.8 74669.7 194370 -9328.69 -129827
3 -7.82417 -0.642627 20.1277 92788.8 -159912 -8072.03 -217930 -20095.7 -92202.9
3 7.80285 -1.09086 18.5022 16194.8 182118 -676630 172828 50759 -88393.4
3 7.88366 -1.75204 19.7296 -34587.9 252979 -768158 -114672 57438 -164025
3 1.21704 -8.36309 20.6221 20266.4 23198.8 63452.9 244463 -220734 19967.5
3 1.85274 -8.36126 21.8795 190749 -11606.2 154792 -182477 -329223 -409.905
3 3.2365 -8.11406 21.938 -25955.7 202628 -149464 204415 -358870 -139901
3 -2.71421 -6.95367 20.4247 142974 -102431 460809 63825.2 52733.3 67912.4
3 -2.24 -7.34607 21.6706 -27195.7 102473 488703 -113608 -18420 14184.1
3 -0.132454 -8.07778 20.5913 -21155 86207.6 282519 -137234 -156044 25777.4
3 -0.924482 -7.80672 21.7551 188985 -79867.2 407911 156041 -48312.3 50964.6
3 3.90484 -7.73517 20.7411 300669 -143061 -213006 -133257 -417433 -117358
3 5.10538 -7.07984 20.8016 -131840 269847 -352946 95284.3 -362013 -319252
3 5.53566 -6.58113 21.9999 372176 -173242 -370507 63993.1 -349914 -318850
3 -5.67345 -4.85829 21.4495 -130426 193942 541579 -4766.98 61233.3 -42795.6
3 -4.68148 -5.87058 21.5541 191417 -120971 425654 16364 117263 40534.8
3 6.93561 -5.1027 20.8547 251543 -28204.5 -515247 187436 -179434 -327712
3 6.53746 -5.61438 22.0796 -99272.9 257773 -557163 -23224 -174840 -423326
3 -7.352 -2.64871 21.4003 149379 -209561 378962 -98374.2 44867.8 -95182.8
3 7.55231 -3.79531 20.8961 -74260.8 229261 -784517 -71448.9 -20696.1 -344296
3 7.79684 -3.13309 22.1653 89986.7 78674.7 -902109 192383 26917.5 -239437
3 -7.67417 -1.29638 21.3589 -62301.5 -30863.1 -12432.2 233453 -3788.73 -93804.2
3 8.03524 -1.01061 20.9264 -3305.56 181781 -854508 147027 69215.4 -68599.6
3 7.99613 -1.72591 22.1605 -19448.7 182396 -954050 -128810 93131.1 -171689
3 1.11377 -8.25694 23.0767 167500 38102.9 260774 240378 -243057 -4446.76
3 -0.267278 -7.86543 22.9704 127470 67643.3 495489 -152063 -160465 40609.6
3 1.73222 -8.10122 24.3171 252422 9676.73 319528 -134743 -315256 -22930.7
3 3.11761 -7.92168 24.3645 32424.6 221053 9122.31 250939 -329183 -157830
3 -1.00936 -7.56944 24.1476 275557 -67441.6 571138 130329 -101775 42355.2
3 -3.01359 -7.05083 22.7838 233484 -97571.7 528587 39757.9 41039.5 54582
3 -2.36217 -7.21772 24.0705 77127.3 161842 582996 -131798 -62990 27256.3
3 3.79897 -7.75156 23.168 364462 -122790 -106669 -105846 -409579 -164703
3 4.96952 -7.03543 23.1824 -63772.7 271310 -324902 95419 -334919 -339531
3 5.48951 -6.61963 24.4296 361021 -234513 -413473 13846.4 -263982 -306407
3 -6.20212 -4.3404 22.6695 146239 -165111 538216 -50721.2 96300 -5087.13
3 -5.82883 -4.90121 23.899 -93081.2 181637 563871 -13022.1 31599.3 8940.56
3 -4.23098 -6.35034 22.7702 -48170.8 192297 463359 -86094.4 28172.1 7481.46
3 -4.76806 -5.83522 23.9461 204883 -109459 476445 3074.98 49680.9 62735.3