ITEM: TIMESTEP
20000
ITEM: NUMBER OF ATOMS
2928
ITEM: BOX BOUNDS pp pp pp
-2.4133166811806685e+01 2.4133166811806685e+01
-2.4598502442761188e+01 2.4598502442761188e+01
-6.1834216000000000e+00 1.1651505760000001e+02
ITEM: ATOMS type x y z f_avestress[1] f_avestress[2] f_avestress[3] f_avestress[4] f_avestress[5] f_avestress[6]
3 0.713025 -8.42443 -4.89696 -131682 90848.1 6.6671e+06 -228434 10267.7 -38492.4
3 2.12293 -8.48424 -4.90482 -107407 81477 6.70597e+06 240790 -9562.05 -36084.4
3 -2.97284 -6.56535 -4.96168 -227576 189612 6.66958e+06 -440.818 25115.3 -51956.9
3 -1.79958 -7.40411 -4.91539 88485.4 -145713 6.65858e+06 148955 28054.8 -47859.4
3 4.60493 -7.52812 -5.01838 205215 -238765 6.66089e+06 -171003 3508.8 -26050.1
3 5.64867 -6.56557 -5.06212 -296250 248564 6.71308e+06 -47626.4 6117.52 -19405.2
3 -4.81259 -4.58678 -4.98136 99676.8 -167534 6.73459e+06 37783.7 45836.3 -9176.87
3 6.97431 -4.34172 -5.04544 144820 -226629 6.65986e+06 129920 18221.8 -44017
3 -5.75953 -3.54848 -5.0257 -119205 66665.6 6.77862e+06 139516 30707.6 -13535.4
3 7.31253 -2.98173 -5.05685 -55896.9 -9250.84 6.67609e+06 -224866 13923.2 -46032.9
3 -7.06132 -1.16428 -4.98069 138091 -272157 6.80482e+06 -62639 11382.5 -16803.1
3 7.28551 -0.301755 -4.9846 -19804.1 -78248.1 6.65372e+06 158916 29418.7 -37700.6
3 0.102423 -8.19792 -3.5551 13493.3 -63662 6.6523e+06 228157 7373.39 -52028.4
3 0.695316 -8.27436 -2.19939 -149576 89264.2 6.68501e+06 -237661 -8743.82 -43694.6
3 2.11481 -8.39422 -2.24093 -141787 82170.7 6.69325e+06 244246 -3656.1 -20788.9
3 2.75947 -8.41734 -3.58741 28411.9 -80194 6.69509e+06 -280780 3524.31 -20932
3 -3.05614 -6.62011 -2.30006 -239838 189720 6.62785e+06 5410.18 8661.27 -37985.1
3 -1.86362 -7.39217 -2.24999 81038.2 -134986 6.62661e+06 150637 -15680.4 -66646.3
3 -1.23134 -7.70746 -3.54816 -229564 176802 6.65826e+06 -110639 14381.6 -51338.7
3 4.06103 -7.86898 -3.64587 -280237 233796 6.6772e+06 124701 5590.75 -6033.9
3 4.58576 -7.52697 -2.23983 193186 -243946 6.68677e+06 -171879 -2504.01 5937.16
3 5.62261 -6.55951 -2.3058 -288995 242318 6.71568e+06 -57962.1 2948.85 -11562.7
3 -4.34137 -5.00975 -3.66564 -172595 125046 6.72478e+06 89053.2 49682.3 -9854.73
3 -4.72735 -4.5313 -2.34299 109101 -139781 6.69458e+06 51162.4 41967.9 6869.93
3 -3.4643 -6.16315 -3.65874 103948 -165050 6.64961e+06 86796.5 16772.6 -23688.5
3 5.98689 -6.10211 -3.69143 222384 -283998 6.72077e+06 -6267.45 16699.6 -15782.2
3 6.75589 -4.89555 -3.65874 -181194 141206 6.69812e+06 -194801 19260.8 -29309.8
3 7.06273 -4.37444 -2.28988 162513 -224145 6.69003e+06 124841 38386.8 -8260.29
3 -6.01556 -2.89782 -3.69589 133737 -197969 6.7653e+06 16966.3 46292.7 21198.2
3 -5.59003 -3.37595 -2.32166 -95488.5 90114.8 6.74686e+06 147176 56576.3 13472.3
3 7.38645 -2.95422 -2.34018 -44511.9 -7415.16 6.63862e+06 -231350 20985.9 -12882.4
3 7.50882 -2.39312 -3.68952 51933.3 -130221 6.65035e+06 179625 24079.3 -26217.3
3 -6.80855 -1.75631 -3.69314 -62711.5 -4184.54 6.82024e+06 181762 17641.5 2561.44
3 -7.03013 -1.20132 -2.33066 173375 -217784 6.79043e+06 -68972.2 -61.5188 10549.5
2 -0.930628 -1.10457 -2.32014 -632626 560676 474613 453041 -452409 -245093
2 0.503106 -0.809471 -2.38324 914836 -376964 -218493 21212.8 139335 574906
3 7.4696 -0.93228 -3.69808 61595.8 -133635 6.61906e+06 -185172 33464.9 -36025.3
3 7.35272 -0.306003 -2.34396 10774.3 -34698.4 6.62142e+06 153074 42518.9 -64645
3 0.0834022 -8.07117 -0.89733 10108.7 -70643.2 6.67841e+06 219869 2544.09 -50435.7
3 2.75762 -8.29864 -0.900424 12814.3 -74979.4 6.68464e+06 -266120 11154.4 -10883.6
3 -3.47608 -6.17082 -0.973948 101575 -144965 6.62102e+06 83609.1 9215.74 -43978
3 -1.25676 -7.64263 -0.921176 -241583 188568 6.61172e+06 -121469 -12836.8 -73819.2
3 4.077 -7.80082 -0.87855 -279714 227432 6.67946e+06 120674 -1474.3 -14122.6
3 -4.31607 -4.99197 -1.01267 -148383 150088 6.6469e+06 103116 29714.1 -12205
3 5.91664 -5.95748 -0.943208 234955 -283619 6.70033e+06 -5075.49 8436.19 -12341.7
3 6.821 -4.8957 -0.932164 -192948 133498 6.68528e+06 -194988 38622.7 -11908.2
3 -5.8554 -2.83582 -0.953324 125996 -149089 6.72219e+06 1403.48 42755.2 15256.3
2 0.050168 -2.08134 -0.431497 397550 121277 -271528 563214 -565902 296239
3 7.50026 -2.32329 -1.00286 64751.7 -98485.3 6.63413e+06 165981 34934.7 -45623.9
3 -6.77086 -1.75526 -0.990412 -107674 49819.7 6.78821e+06 152875 522.851 -483.552
2 -2.30025 -1.52255 -0.320936 528619 240487 -397974 29880.2 669406 -533172
2 -3.21267 -0.405298 -0.670333 -70494.1 363715 -78369.9 -15421.5 -755075 478303
2 -1.18727 -1.88593 -1.12762 171958 72483.7 135187 -565700 702238 167264
2 1.09704 -1.51288 -1.24238 -727089 423204 599151 -415906 168421 -259104
2 2.19928 -0.959188 -0.572001 195308 -154069 299341 -482056 -159843 -847630
3 7.56939 -0.92156 -1.00863 89531.2 -104001 6.60286e+06 -206451 45731.2 -58123.1
3 0.0460418 -8.19208 1.71813 -4374.22 -50993.9 6.67527e+06 243045 8513.92 -41301.1
3 0.70025 -8.30996 0.381232 -158005 85818.4 6.67587e+06 -242818 4211.19 -38373.4
3 2.11069 -8.3935 0.397795 -163594 89065.3 6.6863e+06 234456 -2013.49 -9072.91
3 2.71675 -8.41561 1.7918 12857.6 -92106.6 6.68631e+06 -269461 -434.933 1716.1
3 -3.07835 -6.69876 0.406529 -241330 206795 6.63002e+06 9581.25 -3677.74 -54490
3 -3.58392 -6.21385 1.78222 124491 -130147 6.62245e+06 88394.6 -11290.6 -55616.3
3 -1.87177 -7.4517 0.403754 93123.1 -137009 6.64073e+06 161387 6813.9 -81940.3
3 -1.29564 -7.68941 1.74285 -242311 191226 6.66653e+06 -121649 -10952.6 -55963.5
3 3.94094 -7.68208 1.81903 -291025 214696 6.68199e+06 112172 -20964.4 8281.86
3 4.57837 -7.44678 0.459595 180809 -239070 6.68295e+06 -168196 -7426.92 2907.71
3 5.56192 -6.40133 0.421027 -297354 254046 6.68653e+06 -62982.9 -2079.11 -4934.48
3 -4.75373 -4.55965 0.407673 134811 -105980 6.65065e+06 53059.5 18906.9 -19651.5
3 -4.48391 -5.10134 1.7637 -151120 153037 6.63219e+06 98549.1 -6963.4 -69756.5
3 5.87111 -5.87412 1.7469 234109 -290863 6.71092e+06 -3663.98 -1478.42 -6046.16
3 6.87979 -4.81798 1.73854 -187019 133801 6.71199e+06 -186271 5154.82 -25440.3
3 7.12689 -4.29293 0.359244 170719 -180625 6.70718e+06 148085 22293.4 -37158.8
3 -5.87475 -2.84481 1.73538 141264 -133903 6.73166e+06 -16559.2 61360.5 -33522.7
3 -5.55835 -3.36468 0.341793 -83566.7 86497 6.69334e+06 110898 43352.9 -13919.5
2 0.172711 -2.1827 0.937095 748602 273835 -749731 183710 -428895 -545248
3 7.37212 -2.89584 0.365037 -51506.8 36113 6.63056e+06 -223791 48827.4 -37719.1
3 7.5825 -2.27668 1.70126 71631.4 -85349.9 6.64149e+06 178382 44673.3 -56568.7
3 -6.73494 -1.72082 1.70386 -115685 59828.1 6.76145e+06 122281 106283 -37644.6
3 -7.00902 -1.21155 0.355572 78896.7 -136341 6.78673e+06 -160149 49658.3 -29019.9
2 -2.24478 -1.56238 1.15471 -600384 105681 903252 455335 -254688 348019
2 -3.10436 -0.442129 1.61949 694449 522058 -857987 -287961 -335142 -113651
2 -1.02139 -1.91327 1.71677 -644911 55793.2 941641 -492584 -73961.7 213120
2 1.265 -1.48203 1.57877 -229862 322213 181983 -55080.7 736934 561085
2 2.31231 -0.905348 0.85699 371944 -393621 359438 260421 234434 826718
3 7.60149 -0.824756 1.66037 91588.7 -84575.5 6.58594e+06 -207117 50103.8 -54665.4
3 7.50563 -0.212778 0.320184 17295.8 11100.8 6.56961e+06 147902 48707.3 -64512.5
3 0.608826 -8.36835 3.05398 -155685 88754.5 6.66071e+06 -242265 -92.3266 -26889.7
3 2.00327 -8.42542 3.09888 -172313 88634.4 6.67534e+06 218845 -5705.31 -2565.86
3 -3.07791 -6.68007 3.05005 -239861 196281 6.63893e+06 17795 -19632.9 -75595
3 -1.88024 -7.38363 3.06242 91301.6 -150958 6.65335e+06 170824 -17571.5 -52735.3
3 4.47785 -7.37882 3.11054 169189 -252891 6.71118e+06 -188486 -28210.6 16357.6
3 5.51333 -6.34313 3.10743 -309824 236054 6.68957e+06 -78095.7 -25605.1 -3758.51
3 -4.87599 -4.59977 3.09435 121749 -112088 6.66705e+06 48492.1 4819.33 -102196
3 7.06365 -4.18478 3.05256 168346 -229569 6.68204e+06 111494 12692.5 -11763
3 -5.66037 -3.43993 3.04516 -82164.3 88760.3 6.74576e+06 125750 36548.6 -76334.2
3 7.35905 -2.81245 3.05413 -44732.8 -10601.7 6.65817e+06 -244078 32772.3 -32479.6
3 -6.99755 -1.17339 3.02851 173809 -153320 6.76362e+06 -94024.4 115669 -34406
2 -1.38094 -0.0176501 3.29212 229682 -192703 178901 944602 407395 -126057
2 -0.58789 -1.10536 2.88373 493779 508389 -726660 492005 625776 -48584.8
2 0.828621 -0.90685 2.78889 118177 -185489 373091 -420594 -707440 -498260
3 7.43762 -0.129548 3.00677 -11526.8 -18762.5 6.61242e+06 174527 49726.3 -48298.1
3 -0.0439173 -8.25858 4.37077 -24186.1 -56847.4 6.65245e+06 258124 -15338.2 -13111.8
3 0.549994 -8.3634 5.75084 -180187 123209 6.66051e+06 -236099 -27009.3 -4089.44
3 1.96175 -8.43441 5.7988 -183227 123302 6.69038e+06 215443 -27239.6 6343.96
3 2.56972 -8.22782 4.47108 21668.4 -84330.9 6.68206e+06 -276660 -25591.2 8789.33
3 -3.16645 -6.76617 5.72453 -258156 198052 6.66935e+06 44350.6 -25363.8 -89610.6
3 -3.70864 -6.32478 4.38151 116417 -172649 6.66025e+06 96553.5 -18446.5 -91674.8
3 -1.93658 -7.49183 5.67295 75678.4 -139854 6.64321e+06 201618 -22316.2 -55843.6
3 -1.3105 -7.65181 4.41965 -272948 190158 6.64277e+06 -100132 -21237.9 -50946.6
3 3.86038 -7.62442 4.4801 -276814 229124 6.72478e+06 96357.6 -44897.8 28160.5
3 4.26112 -7.15409 5.82853 158247 -229060 6.69988e+06 -196097 -30538.3 63368.9
3 5.36619 -6.23142 5.82064 -298939 234926 6.72598e+06 -84693 -46885 71780.8
3 -4.52971 -5.16915 4.35883 -175101 132410 6.69163e+06 104000 -11901.6 -93049.8
3 -4.85381 -4.63146 5.6662 136543 -146542 6.73665e+06 38512.5 31929.9 -117710
3 5.80953 -5.8009 4.44027 228711 -314970 6.68972e+06 -38163.5 -39180.8 25820.8
3 6.69604 -4.69592 4.42695 -205643 101931 6.69731e+06 -218860 -19163.7 8666.69
3 6.98295 -4.09829 5.76396 191014 -272407 6.68021e+06 92135.6 -24483.9 25308.3
3 -6.02874 -2.96275 4.37012 127744 -156980 6.80014e+06 183.622 51018.6 -94139.6
3 -5.72572 -3.5362 5.70271 -89601.5 57785.7 6.78692e+06 118761 41955 -103541
3 7.42707 -2.7318 5.69555 -32002.6 -58387.5 6.67234e+06 -255298 14560.8 3219.22
3 7.43802 -2.16938 4.36542 79178.1 -190826 6.65523e+06 180516 23887.7 -19716.9
3 -6.75423 -1.74374 4.40926 -46081 24057 6.77698e+06 166615 97089.5 -68653.5
3 -7.10696 -1.25142 5.73675 146181 -223737 6.76545e+06 -85668.4 107568 -42718.2
3 7.54351 -0.714848 4.33623 80880 -183984 6.62457e+06 -198444 49418 -46274.2
3 7.70342 -0.0316066 5.61961 8894.52 -29115.2 6.64104e+06 197397 60052.9 -58419
3 2.51465 -8.10915 7.12318 28387.6 -40409.3 6.67733e+06 -273257 -19084.3 18098
3 -3.79908 -6.45474 7.04178 147855 -149313 6.6995e+06 104178 3252.08 -123927
3 -0.214806 -8.40123 7.06683 -56432.8 -13935.4 6.6526e+06 272050 -36576.5 -32380.5
3 -1.53198 -7.89975 7.03365 -289096 212229 6.65653e+06 -94586.3 -30995.2 -63912.8
3 3.79247 -7.50893 7.16207 -268186 268443 6.66389e+06 81348.4 -29308.3 50921.3
3 -4.61313 -5.27145 6.99179 -142695 142577 6.75935e+06 103975 8294.77 -115207
3 5.68372 -5.71146 7.15533 258139 -259543 6.6969e+06 -41669 -37512.1 78082
3 6.68029 -4.64142 7.13056 -144458 150620 6.68157e+06 -213362 -17521 51644.7
3 -6.11241 -3.06709 7.01548 149942 -168688 6.76348e+06 -13173.8 69792.7 -78875.2
1 -0.374391 -3.60009 7.79306 428247 -165612 71175.7 692407 -693271 299914
1 -1.06758 -2.55172 7.18224 702535 -824655 247803 451354 -205186 -421020
1 1.04892 -3.69496 7.7122 458915 120066 -68717.5 -669434 698050 256994
1 1.79536 -2.68148 7.11562 623307 -552112 274437 -645448 87419.2 -403497
1 2.98102 -2.21481 7.69419 48031.4 180408 229983 910971 -122725 497166
3 7.57897 -2.08985 7.05635 140526 -104653 6.69682e+06 187271 34957.1 -37734.3
3 -6.84549 -1.8766 7.0716 -49751.4 10430.4 6.76636e+06 147796 111304 -44887.8
1 -0.960996 -0.20976 6.90868 561590 -840867 453567 -559636 -342260 27053
1 -0.261894 -1.46385 6.65621 -805186 872880 -309650 46766.6 607384 130700
1 -2.22703 -1.98768 7.88638 -135282 227062 160008 -765791 222418 649633
1 -2.12476 -0.462516 7.73322 126838 370159 -164211 794753 361819 -555036
1 1.13847 -1.50241 6.46834 -940047 967227 44029.8 244245 -463151 175119
1 3.14702 -0.774297 7.47976 -229363 764517 -122988 -714825 -498249 -364172
1 1.97088 -0.295534 6.76225 769818 -827291 424845 377064 274629 -2099.68
3 7.67928 -0.661516 7.00883 125781 -109580 6.65751e+06 -196453 65164.8 -34262
3 -0.210856 -8.31401 9.68833 107906 -139727 6.69667e+06 182277 -8864.68 -76279.7
3 0.472911 -8.4493 8.3966 -130224 109294 6.65672e+06 -225831 -61197.9 -58595.1
3 1.89906 -8.29205 8.41965 -140534 140229 6.63917e+06 226531 -45694.3 -26157.3
3 -3.88292 -6.56324 9.70684 135193 -234193 6.7154e+06 -58675.8 -34932.7 -132517
3 -3.33623 -6.89466 8.35241 -197322 216952 6.69488e+06 -6065.97 -57208.3 -145345
3 -2.07432 -7.56914 8.36188 140997 -103655 6.68934e+06 167093 -12268.1 -117188
3 -1.51988 -7.81985 9.69769 -153204 182244 6.67904e+06 -177564 -24070.5 -108108
3 2.4524 -8.13321 9.7887 97632 -62888 6.6044e+06 -241679 -32187.8 -29226
3 3.70919 -7.54018 9.79658 -213466 210669 6.63577e+06 134513 -13945.2 2386.94
3 4.30757 -7.15598 8.4939 214200 -174598 6.6483e+06 -171894 -17662.1 20403.4
3 5.22218 -6.08689 8.50189 -238181 267093 6.67203e+06 -54216.9 -21940.7 56677.3
3 -4.97489 -4.75841 8.3878 155847 -116649 6.72277e+06 7195.82 -16994.3 -124317
3 -4.70319 -5.40621 9.71747 -199097 189426 6.73572e+06 5488.96 -32901.6 -85485.8
1 -0.758807 -4.28374 9.06476 -826653 530215 479221 -255479 564427 -234513
1 1.57142 -4.38164 8.93467 -853096 542984 676475 372869 -403766 -283591
1 0.424775 -4.71424 9.77156 1.01336e+06 -357406 -589488 -42404.5 -99213.4 659771
3 5.71884 -5.71421 9.7998 259735 -209066 6.67469e+06 36783.5 -19291.3 36013.3
3 6.63414 -4.58347 9.77738 -171646 205900 6.67796e+06 -117935 15420.1 24692.4
3 6.83318 -4.01565 8.4526 205184 -168288 6.68176e+06 129063 10548.8 19019
3 -6.09069 -3.10216 9.70297 167459 -142916 6.71183e+06 -30651.5 22049.3 -34677.8
3 -5.8554 -3.64384 8.37915 -35782.5 106470 6.74394e+06 100277 30786.3 -76053.3
1 -2.4679 -2.4941 9.19684 398193 334590 -533793 -189290 -322113 834735
1 -1.86374 -3.66778 9.72455 36071.3 -44785.9 -133165 34822.4 515671 -764580
1 2.76314 -3.86779 9.51186 -94719.7 158590 271122 -221702 -663898 -740293
1 3.4182 -2.76588 8.91354 452938 373889 -690394 262442 178347 632586
1 3.97538 -1.97706 9.97088 -530004 -1.02052e+06 820944 -610259 -38672.9 -184605
3 7.37637 -2.65299 8.39332 -42362.4 70751.9 6.69444e+06 -220655 71834.1 4088.53
3 7.59495 -2.0523 9.71363 -100482 2821.01 6.7143e+06 231818 63290.5 -6994.82
3 -6.99742 -1.25186 8.41494 146871 -161470 6.73369e+06 -102005 99726.3 -22921.4
3 -6.67539 -1.82392 9.77063 -3215.83 27503.5 6.72635e+06 126349 69378.9 -11079.3
1 4.12456 -0.586888 9.80157 -461164 -1.15463e+06 747015 470378 112661 -329104
3 7.68503 0.0470617 8.35884 -3948.12 29636.1 6.6534e+06 188648 111685 -29569.6
3 7.60933 -0.611085 9.74595 -128108 18807.2 6.69835e+06 -232907 77406.5 19791.1
3 0.380773 -8.40267 11.0784 -17653.8 -30661.2 6.72105e+06 -245540 7632.73 4169.51
3 1.81375 -8.31696 11.1313 -48672.5 37453.5 6.61651e+06 257268 -27370.8 -1287.3
3 -3.439 -7.02739 11.0301 -224004 148986 6.74338e+06 -101818 21056.2 -31246.7
3 -2.20472 -7.73682 10.9914 164533 -207319 6.70285e+06 97840 13360.7 -65367.2
3 4.25921 -7.1601 11.1236 222384 -246883 6.65097e+06 -103427 -41775.7 44390.1
3 5.34693 -6.26927 11.0729 -245465 237797 6.67814e+06 15438.7 -56919.8 44219.2
3 -5.08361 -4.87706 11.0372 124421 -160077 6.70932e+06 661.197 -7452.55 -28406.2
1 0.503723 -4.50973 11.1737 747365 -208382 -944561 -107532 -177766 -350530
1 1.73793 -4.0996 11.8152 -1.00744e+06 143033 647159 177036 670966 171583
3 6.9452 -4.02222 11.0961 125955 -160255 6.68791e+06 175904 -29486.7 47600.6
3 -5.86272 -3.68089 11.0057 -65688.9 81058.2 6.73091e+06 98258.7 -5937.99 -16561.9
1 -2.33729 -2.26824 11.5247 418144 649366 -999543 -345025 88180.9 -375718
1 -0.566229 -3.87252 11.846 -1.1598e+06 132157 723507 -59584.8 -447730 212864
1 -1.75238 -3.52765 11.1892 -198396 -712795 469820 317438 -445125 628000
1 2.85523 -3.82583 10.9833 -218175 -584044 573009 -372039 615855 671843
1 3.70173 -2.62327 11.2981 167890 459648 -951964 263361 -255078 -207404
3 7.36587 -2.68666 11.0804 -129742 101453 6.72244e+06 -208723 -71643.9 16043
3 -6.92235 -1.20792 11.1089 168985 -160080 6.68953e+06 -105053 51984.9 21435
1 -2.78387 -1.62587 10.33 66030.1 -764605 992741 451966 132595 -322264
1 -2.78472 -0.211628 10.2022 -34631.2 -595959 966611 -542271 -29718.8 -243636
1 3.38972 -0.317296 12.145 -154799 343657 180029 -767470 260821 586952
3 -0.29956 -8.32922 12.3681 34110.6 -40678.9 6.72314e+06 235616 -1653.59 2840.49
3 0.345763 -8.34512 13.6932 -149731 131369 6.74783e+06 -229803 2011.06 -26102.2
3 1.75454 -8.27968 13.7057 -193862 167209 6.65131e+06 216544 -2329.38 -1493.61
3 -3.85203 -6.53025 12.3513 156435 -159195 6.71665e+06 82507.8 -5864.32 -1102.24
3 -3.36822 -6.97514 13.6471 -249636 218768 6.72581e+06 51058.4 -34866.7 -40464.4
3 -2.2221 -7.78438 13.6413 98737.7 -119324 6.7445e+06 213200 -25108 -16585.6
3 -1.68324 -8.16416 12.3003 -194479 180718 6.74404e+06 -149956 23595 -8800.41
3 2.38431 -8.05825 12.4081 53222.8 -78938 6.6076e+06 -249090 -11836.7 25353.1
3 3.66728 -7.51571 12.4363 -237212 250073 6.66029e+06 108492 -46028 26289.4
3 4.29822 -7.2369 13.7316 175906 -202349 6.68914e+06 -207085 -21605.5 9521.27
3 5.34909 -6.32579 13.6829 -266558 233116 6.73706e+06 -101915 -913.311 15282.6
3 -4.72044 -5.35138 12.3508 -144330 157399 6.70841e+06 89062.6 -11581.8 -22097.3
3 -5.17536 -4.86769 13.7087 165092 -159602 6.71524e+06 34717.2 -47243.4 -25382.8
3 5.82575 -5.86224 12.3937 258928 -252591 6.69076e+06 -28516.4 -25642.1 41964.6
3 6.6078 -4.60276 12.4112 -164252 159475 6.70108e+06 -199001 -46399.6 53192.9
3 -6.15578 -3.10368 12.3806 170684 -147843 6.73224e+06 -36853.8 -14521 6203.46
3 -5.81684 -3.62386 13.7128 -51046.2 60971.2 6.73829e+06 128125 -31703.4 2330.28
1 -0.0487533 -3.16287 12.9803 701373 52492.9 -359475 333953 795830 -388203
1 1.37189 -3.19242 12.8704 337022 226566 -7184.62 -415053 -946330 -144461
1 2.16033 -2.05723 13.189 633073 -720885 518596 -526652 -339207 69488.8
3 6.85612 -4.01188 13.7398 227267 -241491 6.75365e+06 79000.7 -24598.8 30963.7
3 7.19888 -2.61405 13.7415 -24870.2 -12550.7 6.73571e+06 -260130 -11961.1 25469.2
3 -6.73302 -1.81158 12.3943 -8066.37 28983 6.70202e+06 129173 27873.5 9001.66
3 -6.81213 -1.13947 13.724 137109 -151001 6.69098e+06 -104180 37678.9 25477.2
1 -0.681359 -1.89478 13.32 857016 -935440 395309 312608 305599 -106797
1 -1.82018 -1.43906 12.5172 -175128 656611 -94361.1 -793884 -440729 -464632
1 -1.75768 -0.00986174 12.4136 -23637.3 15701.9 234927 895044 -116515 456042
1 0.170105 -0.747595 13.6124 -938772 820009 -226240 205773 -514868 98532.3
1 1.57029 -0.791156 13.5934 -740513 1.01728e+06 -181429 62553.4 659279 71550.2
1 3.31534 -1.75104 12.3473 101337 497819 -190312 790587 393853 -564174
3 7.39421 -1.97554 12.422 122273 -98830.7 6.71679e+06 188565 -44915.9 42081
3 7.46936 0.0516132 13.7629 26831.9 -18959.4 6.68596e+06 206478 -30903 40979.4
3 7.48317 -0.559138 12.4079 102175 -86942.7 6.68325e+06 -197092 -56281.7 27381
3 -0.335989 -8.34758 15.0088 -81619.7 -7965.29 6.73546e+06 273054 2439 -27977
3 -3.92131 -6.54709 14.961 128229 -213636 6.73108e+06 136166 -52377.9 -50886
3 -2.37876 -7.88655 16.427 33771.8 -144763 6.72724e+06 228676 -38374.8 -30717.7
3 -1.76536 -8.18111 14.995 -306843 207168 6.74623e+06 -86411.2 -17158 -27263.8
3 2.4094 -8.06677 15.04 -15458.8 -53088.1 6.69862e+06 -295400 -31210.8 10168.5
3 3.68856 -7.53765 15.0417 -312796 235373 6.70681e+06 67004.7 -19481.7 19137.9
3 -4.84291 -5.46085 14.9592 -192481 111787 6.74382e+06 137981 -62525.8 -27409.5
3 5.85072 -5.84743 15.0584 247016 -283220 6.73463e+06 -60171.9 -6079.41 18299.8
3 6.60294 -4.64349 15.0453 -164436 119703 6.7541e+06 -218842 -20129.8 17506.1
3 -6.05118 -3.03591 15.0195 142496 -169701 6.77933e+06 -46319 4107.78 -1685.59
3 -6.46424 -1.69438 15.0502 -35276.6 -8189.82 6.7085e+06 128652 42779.3 508.149
3 7.18332 -2.02339 15.0814 116208 -202752 6.76246e+06 188847 -12774.6 31889.1
3 7.41786 -0.621557 15.0618 110897 -198947 6.70987e+06 -199684 -19584.5 20960.1
3 -0.34279 -8.19615 17.6658 -50171.5 9331.59 6.66438e+06 264695 -34984.6 -17131.4
3 0.292108 -8.26328 16.3762 -176730 127235 6.72156e+06 -235317 915.659 -425.679
3 1.70953 -8.0982 16.3442 -197663 165469 6.71941e+06 216844 -17471.9 29531.6
3 -3.96389 -6.63042 17.6885 167345 -177807 6.73006e+06 118896 -50935.7 -75661.2
3 -3.51007 -7.08377 16.3578 -303051 205135 6.73998e+06 71797.3 -52731.5 -48366.7
3 -1.7424 -8.12692 17.7196 -268228 213074 6.69957e+06 -104659 -54563.9 -29912.3
3 2.40697 -8.03812 17.6268 730.947 -25510.6 6.70076e+06 -287464 -4802.59 25534.2
3 3.69383 -7.45055 17.6143 -284060 248081 6.71891e+06 64547.8 -11943.5 34367.6
3 5.38462 -6.26963 16.348 -275085 228234 6.71968e+06 -94975.2 -9433.74 20160.2
3 4.23569 -7.12947 16.3346 158953 -203845 6.7315e+06 -203759 -24866 33999.4
3 -5.27903 -5.01863 16.3344 163009 -175213 6.75308e+06 30521.4 -28784.6 -62722.6
3 -4.90793 -5.50875 17.6629 -165968 160410 6.73565e+06 132338 -31662.1 -73629.3
3 5.8875 -5.88907 17.7564 241356 -262175 6.69984e+06 -67465 569.982 5097.68
3 6.56996 -4.62239 17.7811 -134726 141910 6.71744e+06 -235751 -16810.8 31920.8
3 -6.06921 -3.13883 17.6902 163860 -164303 6.7464e+06 -29713.4 4430.07 -14535.3
3 -5.91782 -3.7013 16.3451 -69670.4 63231.1 6.76454e+06 137799 6514.68 -33853.2
2 -1.49365 -2.0511 18.3152 185350 105746 186381 -982562 190889 402608
2 -0.207749 -2.15084 17.7014 689758 -675327 219672 805585 -225405 10923.5
2 0.558432 -3.28245 17.9849 655136 249368 -512726 544710 -688554 326339
2 2.04182 -3.07516 18.1328 208651 -10384.6 319197 -508767 783611 289932
3 6.73984 -4.00294 16.3995 216626 -260792 6.73058e+06 87420.1 -14333.4 40173.8
3 6.98841 -2.5961 16.4088 -13997.5 -30482.5 6.75684e+06 -257877 -37520.5 36610.1
3 -6.63074 -1.10783 16.3403 110928 -156161 6.7295e+06 -93690.4 78512.3 -14620.8
3 -6.4346 -1.75873 17.736 -26522.9 3437.44 6.74142e+06 114861 61577.8 7636.09
2 0.376814 -0.812667 17.5976 -1.10901e+06 812560 -189419 -184599 241697 -51451.7
2 1.73572 -0.675477 17.8283 -485231 1.01079e+06 -342870 -211902 -706183 -148927
2 2.5609 -1.81131 18.1034 643046 -838596 581776 -202666 275696 -247803
3 7.12645 -2.02015 17.7743 124752 -143166 6.72922e+06 189434 -28169 40027.3
3 7.24763 -0.609992 17.7598 124380 -138492 6.72246e+06 -194676 -33359.2 34514.5
3 -0.281385 -8.19114 20.3179 8135.38 -30660.3 6.61249e+06 239719 -124.197 -42926.6
3 0.322202 -8.2628 18.9796 -136219 89327.3 6.61066e+06 -240538 -18974.7 -27581
3 -4.01816 -6.60331 20.3473 117557 -253761 6.72347e+06 3125.19 -33892.8 -77558.2
3 -3.55668 -7.0673 19.0108 -254041 205722 6.71817e+06 -32114 -80023.8 -89684.7
3 -2.39349 -7.90162 19.0219 133377 -192099 6.6655e+06 156080 -43991.8 -81748.7
3 -1.80635 -8.07191 20.3369 -190202 140340 6.6379e+06 -130273 -18189.8 -67237.6
3 1.7614 -8.36697 18.9338 -175887 117060 6.67883e+06 223080 5712.5 -20317.7
3 2.4034 -8.1525 20.2859 72399.8 -142352 6.69207e+06 -215603 -34027.3 -5331.73
3 3.63841 -7.52699 20.2896 -233827 229587 6.68905e+06 119783 -12822.1 24458.5
3 4.17729 -7.13352 18.9909 180178 -209843 6.69795e+06 -152539 -12112.3 4879.11
3 5.35062 -6.32566 19.0135 -259805 243975 6.69383e+06 -45623.2 35511.4 -14407.9
3 -5.25021 -4.99741 18.9957 143437 -172602 6.72033e+06 -9928.9 -53572.9 -80315.2
3 -4.89573 -5.54335 20.3588 -235632 143881 6.71761e+06 35445.9 -75798.2 -50626.7
2 -1.1599 -4.15027 19.5319 -422577 -150144 517886 373933 531006 -551956
2 0.101277 -4.24268 18.9304 -972313 307735 860965 -375223 198350 -240106
2 1.20166 -4.65624 19.724 804056 -192344 -653721 42504 349442 561782
3 5.73095 -5.86212 20.3871 200753 -272448 6.72674e+06 82555.3 -8351.25 -5910.09
3 6.53729 -4.64158 20.3903 -246889 190653 6.7388e+06 -115590 -23840.4 8842.94
3 -6.09396 -3.10884 20.3645 165707 -115923 6.70155e+06 -38104.3 -14099.3 -5332.13
3 -5.81562 -3.72821 19.0375 -59202.4 88916.2 6.72015e+06 128911 -22775.2 -29249.9
2 -2.66055 -2.66423 20.4052 -140728 -650997 961137 516237 -333134 243091
2 -1.89195 -3.00989 19.231 681502 557422 -852619 -417178 -12224.5 469342
2 2.38941 -3.96706 19.2434 -737533 374732 323872 99102.3 -846908 -362065
2 3.20894 -3.48337 20.2346 20217.5 -457825 88084.2 -4463.75 -469314 -905415
2 3.94148 -2.28596 20.0904 -151199 475547 -808792 107024 405776 605653
3 6.75612 -4.01761 19.0625 216329 -189774 6.72737e+06 143784 5933.11 -2762.52
3 7.07851 -2.64844 19.0572 -99720.2 52658 6.71599e+06 -210420 6014.23 28971.7
3 7.28188 -2.08602 20.3616 -81481 -19666.2 6.73351e+06 188415 -55904.8 15413
3 -6.55266 -1.08905 19.082 129423 -104861 6.7086e+06 -96570.3 61403.4 4897.09
3 -6.35926 -1.71635 20.3903 5111.15 40301.6 6.69171e+06 107775 17172.5 7960.78
2 -2.42712 -0.2377 19.7986 412272 685221 -839681 400437 131613 -502401
2 -1.72214 -0.628417 18.5847 -481763 595035 164436 828534 254198 -303652
2 3.41816 0.0141871 19.3532 190993 63043.1 -7197.44 -665552 -197172 -742990
2 3.60955 -1.40505 19.0108 -199705 574502 -231927 612855 -460026 691839
3 7.34967 -0.650738 20.3729 20260.7 -21738.4 6.72415e+06 -217947 -20482.2 42908
3 0.321292 -8.23381 21.6714 -105527 51634.7 6.63484e+06 -248625 -14261.7 -19307.2
3 -3.6186 -7.13167 21.675 -271945 169429 6.7084e+06 -58489 39985.9 -1290.92
3 -2.42278 -7.89641 21.6427 131868 -213386 6.66433e+06 149910 6205.73 -23596.5
3 1.71639 -8.24814 21.6526 -151415 102221 6.70568e+06 231160 -36562.5 16744
3 4.24195 -7.25765 21.6584 226123 -165674 6.70333e+06 -137879 -36022.6 5379.71
3 5.29873 -6.32085 21.6542 -255473 241635 6.72881e+06 4778.45 -66532.5 32772
3 -5.27103 -5.05946 21.6923 116693 -174024 6.69859e+06 -35977.4 -14274.3 8468.33
2 -1.31819 -4.48336 20.9578 -27547 -289636 -207912 30799.6 -701202 728699
2 -0.168871 -4.87689 21.6702 -586355 208679 210581 -485669 -897910 16398.7
2 1.06573 -4.93562 21.0632 729142 -210030 -573698 302499 475929 -484075
2 2.09426 -4.60393 21.9892 -1.07038e+06 461044 790199 -60380.4 85891.8 316068
3 -5.87341 -3.77981 21.7076 -66333.1 90727.2 6.72155e+06 130669 -32899.8 5854.61
2 -2.32087 -3.57705 21.5041 97079.9 288640 -622686 -179518 596454 -599961
2 3.17549 -3.81099 21.5897 -173545 -209651 501961 -400374 413414 803796
2 3.78531 -2.78457 22.3657 304763 749699 -885061 404476 207569 -521977
3 6.94105 -4.10908 21.7001 161505 -184205 6.72942e+06 161182 -86595.9 36886.4
3 7.31067 -2.70341 21.6878 -161352 63377.4 6.75324e+06 -185480 -128007 31023.8
3 -6.63234 -1.16285 21.734 158939 -108420 6.68865e+06 -99678.7 22889.9 20808.6
2 -2.89539 -1.30901 20.7035 229515 -900726 1.00509e+06 -391140 -195243 -36564.2
2 -2.68777 -0.832201 22.0594 307101 767633 -604348 123614 446654 587769
2 3.87989 -0.474044 21.7629 -403097 -756749 855432 586236 -250606 148955
2 4.19951 -1.77592 21.4633 -170903 -1.11426e+06 872888 -373179 -160411 -136274
3 -0.337397 -8.29042 23.0021 -36568.2 11424.7 6.66791e+06 261262 10215.9 -31604.9
3 1.67655 -8.22072 24.3215 -212826 157165 6.75063e+06 212716 -55415.8 -21863.4
3 0.268707 -8.35057 24.3117 -164119 123339 6.73369e+06 -244902 -42221 -26376.6
3 -4.10806 -6.78206 23.0128 169983 -174470 6.66969e+06 119307 -11004.9 -10023.5
3 -3.52315 -7.15147 24.3111 -305361 198976 6.70212e+06 59206.5 -23255.1 -34775.3
3 -2.39744 -7.95628 24.3195 46405.6 -137649 6.70691e+06 253211 -8493.31 -47259.6
3 -1.78362 -8.16265 22.9398 -252279 221608 6.67384e+06 -113821 15769.5 -33606
3 2.36398 -8.11232 22.9606 57620 -42767 6.74888e+06 -254249 -41520.1 789.541
3 3.64325 -7.53081 22.9356 -238129 244310 6.72799e+06 83892.3 -55380.5 -572.109
3 4.0726 -7.1006 24.2796 166381 -208937 6.75823e+06 -202909 -52893.5 10201.6
3 5.18158 -6.22199 24.3146 -282376 244351 6.77744e+06 -109065 -49706.1 17039.7
3 -4.93501 -5.60732 23.0174 -172999 171870 6.70447e+06 131015 -13087.8 6696.91
3 -5.20763 -5.02079 24.3265 171178 -204405 6.71652e+06 28949.9 -55010 -4086.45
2 0.0208489 -4.50089 23.0195 -57772.3 284335 259370 552721 792266 -74651.3
2 1.46264 -4.32472 23.2759 966780 -164910 -409044 -374642 -515193 -555537
3 5.63407 -5.74931 22.9838 258586 -244525 6.73378e+06 -28109.7 -67002.9 37481.6
3 6.61525 -4.71049 23.0192 -142561 169302 6.75291e+06 -190651 -58749.2 49716
3 -6.01712 -3.15873 23.0159 173303 -139829 6.73014e+06 -40958.2 -53465.4 16480.7
3 -5.7919 -3.77037 24.3347 -90706.6 41024.6 6.74055e+06 157220 -41072 -3095.53
2 -2.01999 -3.12528 22.785 325453 36115.1 -14781.8 -700479 -126659 -854216
2 -0.897783 -3.53078 23.5542 497976 -571678 543844 580973 233441 393690
2 -0.453492 -2.44527 24.3112 -522352 920088 -365697 -227022 -720805 -169740
2 1.90649 -3.21183 23.9349 847204 -1.03476e+06 68098.2 -265273 -111323 24861.4
2 3.10672 -2.46378 23.5753 -479877 724254 146154 834942 294637 -350070
3 7.36936 -2.76254 24.3452 -5229.93 -35330.5 6.78239e+06 -259951 -57473.8 71780.6
3 7.36137 -2.05526 23.0609 114999 -129394 6.74186e+06 172746 -115427 72628.3
3 6.92694 -4.12018 24.328 226269 -257861 6.75626e+06 92794.8 -34005.1 68573.3
3 -6.57397 -1.20949 24.3176 118180 -91156.4 6.7272e+06 -102473 17023.4 7063.49
3 -6.34572 -1.77359 23.0477 -6487.35 21874.5 6.71693e+06 110141 3807.1 28559
2 -2.28188 -1.68749 23.0994 -35835.7 582741 -127559 571463 -374981 577059
2 -0.68357 -0.0308874 23.9719 138030 -122929 239426 -515939 791570 314906
2 -1.29764 -1.28307 24.0768 660567 -949438 583598 -189449 320586 -223576
2 1.54945 -0.995048 24.4955 538293 -750489 212241 801405 -168164 -9824.06
2 3.25309 -0.0418816 22.963 582750 619697 -898646 -341550 114831 317782
2 2.88351 -1.04684 23.9121 48969.3 238659 175049 -955956 251594 322902
3 7.20941 -0.0624889 24.3946 34074.7 -80369 6.73707e+06 195742 -97445.5 75024
3 7.21596 -0.677141 23.064 117927 -125520 6.74608e+06 -194700 -112036 45859.3
3 -0.317686 -8.41831 25.6773 -52532.6 6891.67 6.73661e+06 270358 -55656.2 -18560.9
3 -1.72717 -8.16831 25.6712 -266049 206925 6.74872e+06 -107338 -44201.6 -25249
3 -3.98319 -6.72054 25.6303 148432 -229184 6.70224e+06 147053 -24243 -48430.5
3 2.27868 -8.09762 25.695 -2632.61 -62407.1 6.75067e+06 -277471 -55064.3 7924.46
3 3.5764 -7.49633 25.6749 -288766 246585 6.77319e+06 53108.7 -46855.7 21510.3
3 -4.91565 -5.63543 25.6597 -213708 118717 6.69501e+06 158835 -33031.5 -28171.6
3 5.63759 -5.76221 25.6653 221735 -316181 6.76547e+06 -84434.9 -49086.1 58078
3 6.46222 -4.60583 25.6723 -176423 87521.7 6.75192e+06 -256786 -34033.4 53854.8