LAMMPS data file via write_data, version 23 Jun 2022, timestep = 0

2928 atoms
3 atom types

-25 25 xlo xhi
-25 25 ylo yhi
-0.606218 110.937854 zlo zhi

Masses

1 12.0107
2 12.0107
3 12.0107

Atoms # atomic

2 3 7.899546 -1.392903 0 0 0 0
3 3 6.946744 -4.010705 0 0 0 0
4 3 6.144756 -5.156062 0 0 0 0
5 3 4.010705 -6.946744 0 0 0 0
6 3 2.743484 -7.537659 0 0 0 0
7 3 0 -8.021409 0 0 0 0
8 3 -1.392903 -7.899546 0 0 0 0
9 3 -4.010705 -6.946744 0 0 0 0
10 3 -5.156062 -6.144756 0 0 0 0
11 3 -6.946744 -4.010705 0 0 0 0
12 3 -7.537659 -2.743484 0 0 0 0
25 3 7.748086 -2.076093 1.212436 0 0 0
26 3 7.269866 -3.389994 1.212436 0 0 0
27 3 5.671993 -5.671993 1.212436 0 0 0
28 3 4.600891 -6.570754 1.212436 0 0 0
29 3 2.076093 -7.748086 1.212436 0 0 0
30 3 0.699112 -7.990885 1.212436 0 0 0
31 3 -2.076093 -7.748086 1.212436 0 0 0
32 3 -3.389994 -7.269866 1.212436 0 0 0
33 3 -5.671993 -5.671993 1.212436 0 0 0
34 3 -6.570754 -4.600891 1.212436 0 0 0
35 3 -7.748086 -2.076093 1.212436 0 0 0
36 3 -7.990885 -0.699112 1.212436 0 0 0
49 3 6.946744 -4.010705 2.424871 0 0 0
50 3 6.144756 -5.156062 2.424871 0 0 0
51 3 4.010705 -6.946744 2.424871 0 0 0
52 3 2.743484 -7.537659 2.424871 0 0 0
53 3 0 -8.021409 2.424871 0 0 0
54 3 -1.392903 -7.899546 2.424871 0 0 0
55 3 -4.010705 -6.946744 2.424871 0 0 0
56 3 -5.156062 -6.144756 2.424871 0 0 0
57 3 -6.946744 -4.010705 2.424871 0 0 0
58 3 -7.537659 -2.743484 2.424871 0 0 0
72 3 7.899546 -1.392903 2.424871 0 0 0
73 3 5.671993 -5.671993 3.637307 0 0 0
74 3 4.600891 -6.570754 3.637307 0 0 0
75 3 2.076093 -7.748086 3.637307 0 0 0
76 3 0.699112 -7.990885 3.637307 0 0 0
77 3 -2.076093 -7.748086 3.637307 0 0 0
78 3 -3.389994 -7.269866 3.637307 0 0 0
79 3 -5.671993 -5.671993 3.637307 0 0 0
80 3 -6.570754 -4.600891 3.637307 0 0 0
81 3 -7.748086 -2.076093 3.637307 0 0 0
82 3 -7.990885 -0.699112 3.637307 0 0 0
95 3 7.748086 -2.076093 3.637307 0 0 0
96 3 7.269866 -3.389994 3.637307 0 0 0
97 3 4.010705 -6.946744 4.849742 0 0 0
98 3 2.743484 -7.537659 4.849742 0 0 0
99 3 0 -8.021409 4.849742 0 0 0
100 3 -1.392903 -7.899546 4.849742 0 0 0
101 3 -4.010705 -6.946744 4.849742 0 0 0
102 3 -5.156062 -6.144756 4.849742 0 0 0
103 3 -6.946744 -4.010705 4.849742 0 0 0
104 3 -7.537659 -2.743484 4.849742 0 0 0
118 3 7.899546 -1.392903 4.849742 0 0 0
119 3 6.946744 -4.010705 4.849742 0 0 0
120 3 6.144756 -5.156062 4.849742 0 0 0
121 3 2.076093 -7.748086 6.062178 0 0 0
122 3 0.699112 -7.990885 6.062178 0 0 0
123 3 -2.076093 -7.748086 6.062178 0 0 0
124 3 -3.389994 -7.269866 6.062178 0 0 0
125 3 -5.671993 -5.671993 6.062178 0 0 0
126 3 -6.570754 -4.600891 6.062178 0 0 0
127 3 -7.748086 -2.076093 6.062178 0 0 0
128 3 -7.990885 -0.699112 6.062178 0 0 0
141 3 7.748086 -2.076093 6.062178 0 0 0
142 3 7.269866 -3.389994 6.062178 0 0 0
143 3 5.671993 -5.671993 6.062178 0 0 0
144 3 4.600891 -6.570754 6.062178 0 0 0
145 3 0 -8.021409 7.274613 0 0 0
146 3 -1.392903 -7.899546 7.274613 0 0 0
147 3 -4.010705 -6.946744 7.274613 0 0 0
148 3 -5.156062 -6.144756 7.274613 0 0 0
149 3 -6.946744 -4.010705 7.274613 0 0 0
150 3 -7.537659 -2.743484 7.274613 0 0 0
164 3 7.899546 -1.392903 7.274613 0 0 0
165 3 6.946744 -4.010705 7.274613 0 0 0
166 3 6.144756 -5.156062 7.274613 0 0 0
167 3 4.010705 -6.946744 7.274613 0 0 0
168 3 2.743484 -7.537659 7.274613 0 0 0
169 3 -2.076093 -7.748086 8.487049 0 0 0
170 3 -3.389994 -7.269866 8.487049 0 0 0
171 3 -5.671993 -5.671993 8.487049 0 0 0
172 3 -6.570754 -4.600891 8.487049 0 0 0
173 3 -7.748086 -2.076093 8.487049 0 0 0
174 3 -7.990885 -0.699112 8.487049 0 0 0
187 3 7.748086 -2.076093 8.487049 0 0 0
188 3 7.269866 -3.389994 8.487049 0 0 0
189 3 5.671993 -5.671993 8.487049 0 0 0
190 3 4.600891 -6.570754 8.487049 0 0 0
191 3 2.076093 -7.748086 8.487049 0 0 0
192 3 0.699112 -7.990885 8.487049 0 0 0
193 3 -4.010705 -6.946744 9.699485 0 0 0
194 3 -5.156062 -6.144756 9.699485 0 0 0
195 3 -6.946744 -4.010705 9.699485 0 0 0
196 3 -7.537659 -2.743484 9.699485 0 0 0
210 3 7.899546 -1.392903 9.699485 0 0 0
211 3 6.946744 -4.010705 9.699485 0 0 0
212 3 6.144756 -5.156062 9.699485 0 0 0
213 3 4.010705 -6.946744 9.699485 0 0 0
214 3 2.743484 -7.537659 9.699485 0 0 0
215 3 0 -8.021409 9.699485 0 0 0
216 3 -1.392903 -7.899546 9.699485 0 0 0
1107 2 -1.490547 -0.315585 6.78512 0 0 0
1108 2 0.242653 -1.149185 4.78262 0 0 0
1109 2 0.334253 -1.439285 3.42422 0 0 0
1112 2 0.450053 -0.408085 2.49652 0 0 0
1121 2 -4.859447 -0.828285 6.21272 0 0 0
1123 2 -3.614047 -1.030985 6.79102 0 0 0
1129 2 -3.259947 -2.919085 5.35372 0 0 0
1130 2 -4.512147 -2.718185 4.78092 0 0 0
1131 2 -2.808447 -2.074185 6.36252 0 0 0
1132 2 -5.317747 -1.670785 5.21142 0 0 0
1133 2 -6.029347 -0.919885 4.28732 0 0 0
1134 2 -4.423447 -3.011885 3.42752 0 0 0
1135 2 -5.123347 -2.249685 2.50022 0 0 0
1136 2 -5.933447 -1.200685 2.92942 0 0 0
1137 2 -0.632747 -2.061085 5.35302 0 0 0
1138 2 -1.079647 -2.906685 4.34652 0 0 0
1139 2 -1.490647 -1.642385 6.36072 0 0 0
1140 2 -2.401347 -3.338485 4.34742 0 0 0
1141 2 -3.113147 -3.396185 3.15782 0 0 0
1142 2 -0.480247 -2.530785 3.15322 0 0 0
1143 2 -1.190147 -2.577585 1.95922 0 0 0
1144 2 -2.513147 -3.011185 1.96412 0 0 0
1145 2 -4.951947 -0.584085 1.01932 0 0 0
1146 2 -4.517147 -1.875185 1.30892 0 0 0
1147 2 -3.207647 -2.252685 1.03272 0 0 0
1151 2 -5.834747 -0.168685 2.00652 0 0 0
1161 2 -2.323047 -1.355285 0.45112 0 0 0
1162 2 -1.070847 -1.554285 1.02642 0 0 0
1163 2 -0.250747 -0.468085 1.30012 0 0 0
1164 2 -2.747347 -0.070285 0.15872 0 0 0
1205 1 0.590871 -0.584085 9.937121 0 0 0
1206 1 1.025671 -1.875185 10.226721 0 0 0
1207 1 2.335171 -2.252685 9.950521 0 0 0
1221 1 3.219771 -1.355285 9.368921 0 0 0
1222 1 4.471971 -1.554285 9.944221 0 0 0
1223 1 5.292071 -0.468085 10.217921 0 0 0
1224 1 2.795471 -0.070285 9.076521 0 0 0
217 3 -5.671993 -5.671993 10.91192 0 0 0
218 3 -6.570754 -4.600891 10.91192 0 0 0
219 3 -7.748086 -2.076093 10.91192 0 0 0
220 3 -7.990885 -0.699112 10.91192 0 0 0
233 3 7.748086 -2.076093 10.91192 0 0 0
234 3 7.269866 -3.389994 10.91192 0 0 0
235 3 5.671993 -5.671993 10.91192 0 0 0
236 3 4.600891 -6.570754 10.91192 0 0 0
237 3 2.076093 -7.748086 10.91192 0 0 0
238 3 0.699112 -7.990885 10.91192 0 0 0
239 3 -2.076093 -7.748086 10.91192 0 0 0
240 3 -3.389994 -7.269866 10.91192 0 0 0
241 3 -6.946744 -4.010705 12.124356 0 0 0
242 3 -7.537659 -2.743484 12.124356 0 0 0
256 3 7.899546 -1.392903 12.124356 0 0 0
257 3 6.946744 -4.010705 12.124356 0 0 0
258 3 6.144756 -5.156062 12.124356 0 0 0
259 3 4.010705 -6.946744 12.124356 0 0 0
260 3 2.743484 -7.537659 12.124356 0 0 0
261 3 0 -8.021409 12.124356 0 0 0
262 3 -1.392903 -7.899546 12.124356 0 0 0
263 3 -4.010705 -6.946744 12.124356 0 0 0
264 3 -5.156062 -6.144756 12.124356 0 0 0
265 3 -7.748086 -2.076093 13.336791 0 0 0
266 3 -7.990885 -0.699112 13.336791 0 0 0
279 3 7.748086 -2.076093 13.336791 0 0 0
280 3 7.269866 -3.389994 13.336791 0 0 0
281 3 5.671993 -5.671993 13.336791 0 0 0
282 3 4.600891 -6.570754 13.336791 0 0 0
283 3 2.076093 -7.748086 13.336791 0 0 0
284 3 0.699112 -7.990885 13.336791 0 0 0
285 3 -2.076093 -7.748086 13.336791 0 0 0
286 3 -3.389994 -7.269866 13.336791 0 0 0
287 3 -5.671993 -5.671993 13.336791 0 0 0
288 3 -6.570754 -4.600891 13.336791 0 0 0
302 3 7.899546 -1.392903 14.549227 0 0 0
303 3 6.946744 -4.010705 14.549227 0 0 0
304 3 6.144756 -5.156062 14.549227 0 0 0
305 3 4.010705 -6.946744 14.549227 0 0 0
306 3 2.743484 -7.537659 14.549227 0 0 0
307 3 0 -8.021409 14.549227 0 0 0
308 3 -1.392903 -7.899546 14.549227 0 0 0
309 3 -4.010705 -6.946744 14.549227 0 0 0
310 3 -5.156062 -6.144756 14.549227 0 0 0
311 3 -6.946744 -4.010705 14.549227 0 0 0
312 3 -7.537659 -2.743484 14.549227 0 0 0
325 3 7.748086 -2.076093 15.761662 0 0 0
326 3 7.269866 -3.389994 15.761662 0 0 0
327 3 5.671993 -5.671993 15.761662 0 0 0
328 3 4.600891 -6.570754 15.761662 0 0 0
329 3 2.076093 -7.748086 15.761662 0 0 0
330 3 0.699112 -7.990885 15.761662 0 0 0
331 3 -2.076093 -7.748086 15.761662 0 0 0
332 3 -3.389994 -7.269866 15.761662 0 0 0
333 3 -5.671993 -5.671993 15.761662 0 0 0
334 3 -6.570754 -4.600891 15.761662 0 0 0
335 3 -7.748086 -2.076093 15.761662 0 0 0
336 3 -7.990885 -0.699112 15.761662 0 0 0
348 3 7.899546 -1.392903 16.974098 0 0 0
349 3 6.946744 -4.010705 16.974098 0 0 0
350 3 6.144756 -5.156062 16.974098 0 0 0
351 3 4.010705 -6.946744 16.974098 0 0 0
352 3 2.743484 -7.537659 16.974098 0 0 0
353 3 0 -8.021409 16.974098 0 0 0
354 3 -1.392903 -7.899546 16.974098 0 0 0
355 3 -4.010705 -6.946744 16.974098 0 0 0
356 3 -5.156062 -6.144756 16.974098 0 0 0
357 3 -6.946744 -4.010705 16.974098 0 0 0
358 3 -7.537659 -2.743484 16.974098 0 0 0
371 3 7.748086 -2.076093 18.186533 0 0 0
372 3 7.269866 -3.389994 18.186533 0 0 0
373 3 5.671993 -5.671993 18.186533 0 0 0
374 3 4.600891 -6.570754 18.186533 0 0 0
375 3 2.076093 -7.748086 18.186533 0 0 0
376 3 0.699112 -7.990885 18.186533 0 0 0
377 3 -2.076093 -7.748086 18.186533 0 0 0
378 3 -3.389994 -7.269866 18.186533 0 0 0
379 3 -5.671993 -5.671993 18.186533 0 0 0
380 3 -6.570754 -4.600891 18.186533 0 0 0
381 3 -7.748086 -2.076093 18.186533 0 0 0
382 3 -7.990885 -0.699112 18.186533 0 0 0
394 3 7.899546 -1.392903 19.398969 0 0 0
395 3 6.946744 -4.010705 19.398969 0 0 0
396 3 6.144756 -5.156062 19.398969 0 0 0
397 3 4.010705 -6.946744 19.398969 0 0 0
398 3 2.743484 -7.537659 19.398969 0 0 0
399 3 0 -8.021409 19.398969 0 0 0
400 3 -1.392903 -7.899546 19.398969 0 0 0
401 3 -4.010705 -6.946744 19.398969 0 0 0
402 3 -5.156062 -6.144756 19.398969 0 0 0
403 3 -6.946744 -4.010705 19.398969 0 0 0
404 3 -7.537659 -2.743484 19.398969 0 0 0
417 3 7.748086 -2.076093 20.611405 0 0 0
418 3 7.269866 -3.389994 20.611405 0 0 0
419 3 5.671993 -5.671993 20.611405 0 0 0
420 3 4.600891 -6.570754 20.611405 0 0 0
421 3 2.076093 -7.748086 20.611405 0 0 0
422 3 0.699112 -7.990885 20.611405 0 0 0
423 3 -2.076093 -7.748086 20.611405 0 0 0
424 3 -3.389994 -7.269866 20.611405 0 0 0
425 3 -5.671993 -5.671993 20.611405 0 0 0
426 3 -6.570754 -4.600891 20.611405 0 0 0
427 3 -7.748086 -2.076093 20.611405 0 0 0
428 3 -7.990885 -0.699112 20.611405 0 0 0
1167 1 4.052271 -0.315585 15.702921 0 0 0
1168 1 5.785471 -1.149185 13.700421 0 0 0
1169 1 5.877071 -1.439285 12.342021 0 0 0
1172 1 5.992871 -0.408085 11.414321 0 0 0
1181 1 0.683371 -0.828285 15.130521 0 0 0
1183 1 1.928771 -1.030985 15.708821 0 0 0
1189 1 2.282871 -2.919085 14.271521 0 0 0
1190 1 1.030671 -2.718185 13.698721 0 0 0
1191 1 2.734371 -2.074185 15.280321 0 0 0
1192 1 0.225071 -1.670785 14.129221 0 0 0
1193 1 -0.486529 -0.919885 13.205121 0 0 0
1194 1 1.119371 -3.011885 12.345321 0 0 0
1195 1 0.419471 -2.249685 11.418021 0 0 0
1196 1 -0.390629 -1.200685 11.847221 0 0 0
1197 1 4.910071 -2.061085 14.270821 0 0 0
1198 1 4.463171 -2.906685 13.264321 0 0 0
1199 1 4.052171 -1.642385 15.278521 0 0 0
1200 1 3.141471 -3.338485 13.265221 0 0 0
1201 1 2.429671 -3.396185 12.075621 0 0 0
1202 1 5.062571 -2.530785 12.071021 0 0 0
1203 1 4.352671 -2.577585 10.877021 0 0 0
1204 1 3.029671 -3.011185 10.881921 0 0 0
1211 1 -0.291929 -0.168685 10.924321 0 0 0
1232 2 0.450053 -0.408085 20.981423 0 0 0
1255 2 -5.123347 -2.249685 20.985123 0 0 0
1256 2 -5.933447 -1.200685 21.414323 0 0 0
1261 2 -3.113147 -3.396185 21.642723 0 0 0
1262 2 -0.480247 -2.530785 21.638123 0 0 0
1263 2 -1.190147 -2.577585 20.444123 0 0 0
1264 2 -2.513147 -3.011185 20.449023 0 0 0
1265 2 -4.951947 -0.584085 19.504223 0 0 0
1266 2 -4.517147 -1.875185 19.793823 0 0 0
1267 2 -3.207647 -2.252685 19.517623 0 0 0
1271 2 -5.834747 -0.168685 20.491423 0 0 0
1281 2 -2.323047 -1.355285 18.936023 0 0 0
1282 2 -1.070847 -1.554285 19.511323 0 0 0
1283 2 -0.250747 -0.468085 19.785023 0 0 0
1284 2 -2.747347 -0.070285 18.643623 0 0 0
440 3 7.899546 -1.392903 21.82384 0 0 0
441 3 6.946744 -4.010705 21.82384 0 0 0
442 3 6.144756 -5.156062 21.82384 0 0 0
443 3 4.010705 -6.946744 21.82384 0 0 0
444 3 2.743484 -7.537659 21.82384 0 0 0
445 3 0 -8.021409 21.82384 0 0 0
446 3 -1.392903 -7.899546 21.82384 0 0 0
447 3 -4.010705 -6.946744 21.82384 0 0 0
448 3 -5.156062 -6.144756 21.82384 0 0 0
449 3 -6.946744 -4.010705 21.82384 0 0 0
450 3 -7.537659 -2.743484 21.82384 0 0 0
463 3 7.748086 -2.076093 23.036276 0 0 0
464 3 7.269866 -3.389994 23.036276 0 0 0
465 3 5.671993 -5.671993 23.036276 0 0 0
466 3 4.600891 -6.570754 23.036276 0 0 0
467 3 2.076093 -7.748086 23.036276 0 0 0
468 3 0.699112 -7.990885 23.036276 0 0 0
469 3 -2.076093 -7.748086 23.036276 0 0 0
470 3 -3.389994 -7.269866 23.036276 0 0 0
471 3 -5.671993 -5.671993 23.036276 0 0 0
472 3 -6.570754 -4.600891 23.036276 0 0 0
473 3 -7.748086 -2.076093 23.036276 0 0 0
474 3 -7.990885 -0.699112 23.036276 0 0 0
486 3 7.899546 -1.392903 24.248711 0 0 0
487 3 6.946744 -4.010705 24.248711 0 0 0
488 3 6.144756 -5.156062 24.248711 0 0 0
489 3 4.010705 -6.946744 24.248711 0 0 0
490 3 2.743484 -7.537659 24.248711 0 0 0
491 3 0 -8.021409 24.248711 0 0 0
492 3 -1.392903 -7.899546 24.248711 0 0 0
493 3 -4.010705 -6.946744 24.248711 0 0 0
494 3 -5.156062 -6.144756 24.248711 0 0 0
495 3 -6.946744 -4.010705 24.248711 0 0 0
496 3 -7.537659 -2.743484 24.248711 0 0 0
509 3 7.748086 -2.076093 25.461147 0 0 0
510 3 7.269866 -3.389994 25.461147 0 0 0
511 3 5.671993 -5.671993 25.461147 0 0 0
512 3 4.600891 -6.570754 25.461147 0 0 0
513 3 2.076093 -7.748086 25.461147 0 0 0
514 3 0.699112 -7.990885 25.461147 0 0 0
515 3 -2.076093 -7.748086 25.461147 0 0 0
516 3 -3.389994 -7.269866 25.461147 0 0 0
517 3 -5.671993 -5.671993 25.461147 0 0 0
518 3 -6.570754 -4.600891 25.461147 0 0 0
519 3 -7.748086 -2.076093 25.461147 0 0 0
520 3 -7.990885 -0.699112 25.461147 0 0 0
532 3 7.899546 -1.392903 26.673582 0 0 0
533 3 6.946744 -4.010705 26.673582 0 0 0
534 3 6.144756 -5.156062 26.673582 0 0 0
535 3 4.010705 -6.946744 26.673582 0 0 0
536 3 2.743484 -7.537659 26.673582 0 0 0
537 3 0 -8.021409 26.673582 0 0 0
538 3 -1.392903 -7.899546 26.673582 0 0 0
539 3 -4.010705 -6.946744 26.673582 0 0 0
540 3 -5.156062 -6.144756 26.673582 0 0 0
541 3 -6.946744 -4.010705 26.673582 0 0 0
542 3 -7.537659 -2.743484 26.673582 0 0 0
555 3 7.748086 -2.076093 27.886018 0 0 0
556 3 7.269866 -3.389994 27.886018 0 0 0
557 3 5.671993 -5.671993 27.886018 0 0 0
558 3 4.600891 -6.570754 27.886018 0 0 0
559 3 2.076093 -7.748086 27.886018 0 0 0
560 3 0.699112 -7.990885 27.886018 0 0 0
561 3 -2.076093 -7.748086 27.886018 0 0 0
562 3 -3.389994 -7.269866 27.886018 0 0 0
563 3 -5.671993 -5.671993 27.886018 0 0 0
564 3 -6.570754 -4.600891 27.886018 0 0 0
565 3 -7.748086 -2.076093 27.886018 0 0 0
566 3 -7.990885 -0.699112 27.886018 0 0 0
578 3 7.899546 -1.392903 29.098454 0 0 0
579 3 6.946744 -4.010705 29.098454 0 0 0
580 3 6.144756 -5.156062 29.098454 0 0 0
581 3 4.010705 -6.946744 29.098454 0 0 0
582 3 2.743484 -7.537659 29.098454 0 0 0
583 3 0 -8.021409 29.098454 0 0 0
584 3 -1.392903 -7.899546 29.098454 0 0 0
585 3 -4.010705 -6.946744 29.098454 0 0 0
586 3 -5.156062 -6.144756 29.098454 0 0 0
587 3 -6.946744 -4.010705 29.098454 0 0 0
588 3 -7.537659 -2.743484 29.098454 0 0 0
601 3 7.748086 -2.076093 30.310889 0 0 0
602 3 7.269866 -3.389994 30.310889 0 0 0
603 3 5.671993 -5.671993 30.310889 0 0 0
604 3 4.600891 -6.570754 30.310889 0 0 0
605 3 2.076093 -7.748086 30.310889 0 0 0
606 3 0.699112 -7.990885 30.310889 0 0 0
607 3 -2.076093 -7.748086 30.310889 0 0 0
608 3 -3.389994 -7.269866 30.310889 0 0 0
609 3 -5.671993 -5.671993 30.310889 0 0 0
610 3 -6.570754 -4.600891 30.310889 0 0 0
611 3 -7.748086 -2.076093 30.310889 0 0 0
612 3 -7.990885 -0.699112 30.310889 0 0 0
625 3 6.946744 -4.010705 31.523325 0 0 0
626 3 6.144756 -5.156062 31.523325 0 0 0
627 3 4.010705 -6.946744 31.523325 0 0 0
628 3 2.743484 -7.537659 31.523325 0 0 0
629 3 0 -8.021409 31.523325 0 0 0
630 3 -1.392903 -7.899546 31.523325 0 0 0
631 3 -4.010705 -6.946744 31.523325 0 0 0
632 3 -5.156062 -6.144756 31.523325 0 0 0
633 3 -6.946744 -4.010705 31.523325 0 0 0
634 3 -7.537659 -2.743484 31.523325 0 0 0
648 3 7.899546 -1.392903 31.523325 0 0 0
649 3 5.671993 -5.671993 32.73576 0 0 0
650 3 4.600891 -6.570754 32.73576 0 0 0
651 3 2.076093 -7.748086 32.73576 0 0 0
652 3 0.699112 -7.990885 32.73576 0 0 0
653 3 -2.076093 -7.748086 32.73576 0 0 0
654 3 -3.389994 -7.269866 32.73576 0 0 0
655 3 -5.671993 -5.671993 32.73576 0 0 0
656 3 -6.570754 -4.600891 32.73576 0 0 0
657 3 -7.748086 -2.076093 32.73576 0 0 0
658 3 -7.990885 -0.699112 32.73576 0 0 0
671 3 7.748086 -2.076093 32.73576 0 0 0
672 3 7.269866 -3.389994 32.73576 0 0 0
1227 2 -1.490547 -0.315585 25.270023 0 0 0
1228 2 0.242653 -1.149185 23.267523 0 0 0
1229 2 0.334253 -1.439285 21.909123 0 0 0
1241 2 -4.859447 -0.828285 24.697623 0 0 0
1243 2 -3.614047 -1.030985 25.275923 0 0 0
1249 2 -3.259947 -2.919085 23.838623 0 0 0
1250 2 -4.512147 -2.718185 23.265823 0 0 0
1251 2 -2.808447 -2.074185 24.847423 0 0 0
1252 2 -5.317747 -1.670785 23.696323 0 0 0
1253 2 -6.029347 -0.919885 22.772223 0 0 0
1254 2 -4.423447 -3.011885 21.912423 0 0 0
1257 2 -0.632747 -2.061085 23.837923 0 0 0
1258 2 -1.079647 -2.906685 22.831423 0 0 0
1259 2 -1.490647 -1.642385 24.845623 0 0 0
1260 2 -2.401347 -3.338485 22.832323 0 0 0
1288 1 5.785471 -1.149185 32.185324 0 0 0
1289 1 5.877071 -1.439285 30.826924 0 0 0
1292 1 5.992871 -0.408085 29.899224 0 0 0
1309 1 2.282871 -2.919085 32.756424 0 0 0
1310 1 1.030671 -2.718185 32.183624 0 0 0
1312 1 0.225071 -1.670785 32.614124 0 0 0
1313 1 -0.486529 -0.919885 31.690024 0 0 0
1314 1 1.119371 -3.011885 30.830224 0 0 0
1315 1 0.419471 -2.249685 29.902924 0 0 0
1316 1 -0.390629 -1.200685 30.332124 0 0 0
1317 1 4.910071 -2.061085 32.755724 0 0 0
1318 1 4.463171 -2.906685 31.749224 0 0 0
1320 1 3.141471 -3.338485 31.750124 0 0 0
1321 1 2.429671 -3.396185 30.560524 0 0 0
1322 1 5.062571 -2.530785 30.555924 0 0 0
1323 1 4.352671 -2.577585 29.361924 0 0 0
1324 1 3.029671 -3.011185 29.366824 0 0 0
1325 1 0.590871 -0.584085 28.422024 0 0 0
1326 1 1.025671 -1.875185 28.711624 0 0 0
1327 1 2.335171 -2.252685 28.435424 0 0 0
1331 1 -0.291929 -0.168685 29.409224 0 0 0
1341 1 3.219771 -1.355285 27.853824 0 0 0
1342 1 4.471971 -1.554285 28.429124 0 0 0
1343 1 5.292071 -0.468085 28.702824 0 0 0
1344 1 2.795471 -0.070285 27.561424 0 0 0
673 3 4.010705 -6.946744 33.948196 0 0 0
674 3 2.743484 -7.537659 33.948196 0 0 0
675 3 0 -8.021409 33.948196 0 0 0
676 3 -1.392903 -7.899546 33.948196 0 0 0
677 3 -4.010705 -6.946744 33.948196 0 0 0
678 3 -5.156062 -6.144756 33.948196 0 0 0
679 3 -6.946744 -4.010705 33.948196 0 0 0
680 3 -7.537659 -2.743484 33.948196 0 0 0
694 3 7.899546 -1.392903 33.948196 0 0 0
695 3 6.946744 -4.010705 33.948196 0 0 0
696 3 6.144756 -5.156062 33.948196 0 0 0
697 3 2.076093 -7.748086 35.160631 0 0 0
698 3 0.699112 -7.990885 35.160631 0 0 0
699 3 -2.076093 -7.748086 35.160631 0 0 0
700 3 -3.389994 -7.269866 35.160631 0 0 0
701 3 -5.671993 -5.671993 35.160631 0 0 0
702 3 -6.570754 -4.600891 35.160631 0 0 0
703 3 -7.748086 -2.076093 35.160631 0 0 0
704 3 -7.990885 -0.699112 35.160631 0 0 0
717 3 7.748086 -2.076093 35.160631 0 0 0
718 3 7.269866 -3.389994 35.160631 0 0 0
719 3 5.671993 -5.671993 35.160631 0 0 0
720 3 4.600891 -6.570754 35.160631 0 0 0
721 3 0 -8.021409 36.373067 0 0 0
722 3 -1.392903 -7.899546 36.373067 0 0 0
723 3 -4.010705 -6.946744 36.373067 0 0 0
724 3 -5.156062 -6.144756 36.373067 0 0 0
725 3 -6.946744 -4.010705 36.373067 0 0 0
726 3 -7.537659 -2.743484 36.373067 0 0 0
740 3 7.899546 -1.392903 36.373067 0 0 0
741 3 6.946744 -4.010705 36.373067 0 0 0
742 3 6.144756 -5.156062 36.373067 0 0 0
743 3 4.010705 -6.946744 36.373067 0 0 0
744 3 2.743484 -7.537659 36.373067 0 0 0
745 3 -2.076093 -7.748086 37.585503 0 0 0
746 3 -3.389994 -7.269866 37.585503 0 0 0
747 3 -5.671993 -5.671993 37.585503 0 0 0
748 3 -6.570754 -4.600891 37.585503 0 0 0
749 3 -7.748086 -2.076093 37.585503 0 0 0
750 3 -7.990885 -0.699112 37.585503 0 0 0
763 3 7.748086 -2.076093 37.585503 0 0 0
764 3 7.269866 -3.389994 37.585503 0 0 0
765 3 5.671993 -5.671993 37.585503 0 0 0
766 3 4.600891 -6.570754 37.585503 0 0 0
767 3 2.076093 -7.748086 37.585503 0 0 0
768 3 0.699112 -7.990885 37.585503 0 0 0
769 3 -4.010705 -6.946744 38.797938 0 0 0
770 3 -5.156062 -6.144756 38.797938 0 0 0
771 3 -6.946744 -4.010705 38.797938 0 0 0
772 3 -7.537659 -2.743484 38.797938 0 0 0
786 3 7.899546 -1.392903 38.797938 0 0 0
787 3 6.946744 -4.010705 38.797938 0 0 0
788 3 6.144756 -5.156062 38.797938 0 0 0
789 3 4.010705 -6.946744 38.797938 0 0 0
790 3 2.743484 -7.537659 38.797938 0 0 0
791 3 0 -8.021409 38.797938 0 0 0
792 3 -1.392903 -7.899546 38.797938 0 0 0
793 3 -5.671993 -5.671993 40.010374 0 0 0
794 3 -6.570754 -4.600891 40.010374 0 0 0
795 3 -7.748086 -2.076093 40.010374 0 0 0
796 3 -7.990885 -0.699112 40.010374 0 0 0
809 3 7.748086 -2.076093 40.010374 0 0 0
810 3 7.269866 -3.389994 40.010374 0 0 0
811 3 5.671993 -5.671993 40.010374 0 0 0
812 3 4.600891 -6.570754 40.010374 0 0 0
813 3 2.076093 -7.748086 40.010374 0 0 0
814 3 0.699112 -7.990885 40.010374 0 0 0
815 3 -2.076093 -7.748086 40.010374 0 0 0
816 3 -3.389994 -7.269866 40.010374 0 0 0
817 3 -6.946744 -4.010705 41.222809 0 0 0
818 3 -7.537659 -2.743484 41.222809 0 0 0
832 3 7.899546 -1.392903 41.222809 0 0 0
833 3 6.946744 -4.010705 41.222809 0 0 0
834 3 6.144756 -5.156062 41.222809 0 0 0
835 3 4.010705 -6.946744 41.222809 0 0 0
836 3 2.743484 -7.537659 41.222809 0 0 0
837 3 0 -8.021409 41.222809 0 0 0
838 3 -1.392903 -7.899546 41.222809 0 0 0
839 3 -4.010705 -6.946744 41.222809 0 0 0
840 3 -5.156062 -6.144756 41.222809 0 0 0
841 3 -7.748086 -2.076093 42.435245 0 0 0
842 3 -7.990885 -0.699112 42.435245 0 0 0
855 3 7.748086 -2.076093 42.435245 0 0 0
856 3 7.269866 -3.389994 42.435245 0 0 0
857 3 5.671993 -5.671993 42.435245 0 0 0
858 3 4.600891 -6.570754 42.435245 0 0 0
859 3 2.076093 -7.748086 42.435245 0 0 0
860 3 0.699112 -7.990885 42.435245 0 0 0
861 3 -2.076093 -7.748086 42.435245 0 0 0
862 3 -3.389994 -7.269866 42.435245 0 0 0
863 3 -5.671993 -5.671993 42.435245 0 0 0
864 3 -6.570754 -4.600891 42.435245 0 0 0
878 3 7.899546 -1.392903 43.64768 0 0 0
879 3 6.946744 -4.010705 43.64768 0 0 0
880 3 6.144756 -5.156062 43.64768 0 0 0
881 3 4.010705 -6.946744 43.64768 0 0 0
882 3 2.743484 -7.537659 43.64768 0 0 0
883 3 0 -8.021409 43.64768 0 0 0
884 3 -1.392903 -7.899546 43.64768 0 0 0
885 3 -4.010705 -6.946744 43.64768 0 0 0
886 3 -5.156062 -6.144756 43.64768 0 0 0
887 3 -6.946744 -4.010705 43.64768 0 0 0
888 3 -7.537659 -2.743484 43.64768 0 0 0
1287 1 4.052271 -0.315585 34.187824 0 0 0
1301 1 0.683371 -0.828285 33.615424 0 0 0
1303 1 1.928771 -1.030985 34.193724 0 0 0
1311 1 2.734371 -2.074185 33.765224 0 0 0
1319 1 4.052171 -1.642385 33.763424 0 0 0
1347 2 -1.490547 -0.315585 43.754926 0 0 0
1348 2 0.242653 -1.149185 41.752426 0 0 0
1349 2 0.334253 -1.439285 40.394026 0 0 0
1352 2 0.450053 -0.408085 39.466326 0 0 0
1361 2 -4.859447 -0.828285 43.182526 0 0 0
1363 2 -3.614047 -1.030985 43.760826 0 0 0
1369 2 -3.259947 -2.919085 42.323526 0 0 0
1370 2 -4.512147 -2.718185 41.750726 0 0 0
1371 2 -2.808447 -2.074185 43.332326 0 0 0
1372 2 -5.317747 -1.670785 42.181226 0 0 0
1373 2 -6.029347 -0.919885 41.257126 0 0 0
1374 2 -4.423447 -3.011885 40.397326 0 0 0
1375 2 -5.123347 -2.249685 39.470026 0 0 0
1376 2 -5.933447 -1.200685 39.899226 0 0 0
1377 2 -0.632747 -2.061085 42.322826 0 0 0
1378 2 -1.079647 -2.906685 41.316326 0 0 0
1379 2 -1.490647 -1.642385 43.330526 0 0 0
1380 2 -2.401347 -3.338485 41.317226 0 0 0
1381 2 -3.113147 -3.396185 40.127626 0 0 0
1382 2 -0.480247 -2.530785 40.123026 0 0 0
1383 2 -1.190147 -2.577585 38.929026 0 0 0
1384 2 -2.513147 -3.011185 38.933926 0 0 0
1385 2 -4.951947 -0.584085 37.989126 0 0 0
1386 2 -4.517147 -1.875185 38.278726 0 0 0
1387 2 -3.207647 -2.252685 38.002526 0 0 0
1391 2 -5.834747 -0.168685 38.976326 0 0 0
1401 2 -2.323047 -1.355285 37.420926 0 0 0
1402 2 -1.070847 -1.554285 37.996226 0 0 0
1403 2 -0.250747 -0.468085 38.269926 0 0 0
1404 2 -2.747347 -0.070285 37.128526 0 0 0
1466 3 7.899546 -1.392903 55.772036 0 0 0
1467 3 6.946744 -4.010705 55.772036 0 0 0
1468 3 6.144756 -5.156062 55.772036 0 0 0
1469 3 4.010705 -6.946744 55.772036 0 0 0
1470 3 2.743484 -7.537659 55.772036 0 0 0
1471 3 0 -8.021409 55.772036 0 0 0
1472 3 -1.392903 -7.899546 55.772036 0 0 0
1473 3 -4.010705 -6.946744 55.772036 0 0 0
1474 3 -5.156062 -6.144756 55.772036 0 0 0
1475 3 -6.946744 -4.010705 55.772036 0 0 0
1476 3 -7.537659 -2.743484 55.772036 0 0 0
1489 3 7.748086 -2.076093 56.984472 0 0 0
1490 3 7.269866 -3.389994 56.984472 0 0 0
1491 3 5.671993 -5.671993 56.984472 0 0 0
1492 3 4.600891 -6.570754 56.984472 0 0 0
1493 3 2.076093 -7.748086 56.984472 0 0 0
1494 3 0.699112 -7.990885 56.984472 0 0 0
1495 3 -2.076093 -7.748086 56.984472 0 0 0
1496 3 -3.389994 -7.269866 56.984472 0 0 0
1497 3 -5.671993 -5.671993 56.984472 0 0 0
1498 3 -6.570754 -4.600891 56.984472 0 0 0
1499 3 -7.748086 -2.076093 56.984472 0 0 0
1500 3 -7.990885 -0.699112 56.984472 0 0 0
1513 3 6.946744 -4.010705 58.196907 0 0 0
1514 3 6.144756 -5.156062 58.196907 0 0 0
1515 3 4.010705 -6.946744 58.196907 0 0 0
1516 3 2.743484 -7.537659 58.196907 0 0 0
1517 3 0 -8.021409 58.196907 0 0 0
1518 3 -1.392903 -7.899546 58.196907 0 0 0
1519 3 -4.010705 -6.946744 58.196907 0 0 0
1520 3 -5.156062 -6.144756 58.196907 0 0 0
1521 3 -6.946744 -4.010705 58.196907 0 0 0
1522 3 -7.537659 -2.743484 58.196907 0 0 0
1536 3 7.899546 -1.392903 58.196907 0 0 0
1537 3 5.671993 -5.671993 59.409343 0 0 0
1538 3 4.600891 -6.570754 59.409343 0 0 0
1539 3 2.076093 -7.748086 59.409343 0 0 0
1540 3 0.699112 -7.990885 59.409343 0 0 0
1541 3 -2.076093 -7.748086 59.409343 0 0 0
1542 3 -3.389994 -7.269866 59.409343 0 0 0
1543 3 -5.671993 -5.671993 59.409343 0 0 0
1544 3 -6.570754 -4.600891 59.409343 0 0 0
1545 3 -7.748086 -2.076093 59.409343 0 0 0
1546 3 -7.990885 -0.699112 59.409343 0 0 0
1559 3 7.748086 -2.076093 59.409343 0 0 0
1560 3 7.269866 -3.389994 59.409343 0 0 0
1561 3 4.010705 -6.946744 60.621778 0 0 0
1562 3 2.743484 -7.537659 60.621778 0 0 0
1563 3 0 -8.021409 60.621778 0 0 0
1564 3 -1.392903 -7.899546 60.621778 0 0 0
1565 3 -4.010705 -6.946744 60.621778 0 0 0
1566 3 -5.156062 -6.144756 60.621778 0 0 0
1567 3 -6.946744 -4.010705 60.621778 0 0 0
1568 3 -7.537659 -2.743484 60.621778 0 0 0
1582 3 7.899546 -1.392903 60.621778 0 0 0
1583 3 6.946744 -4.010705 60.621778 0 0 0
1584 3 6.144756 -5.156062 60.621778 0 0 0
1585 3 2.076093 -7.748086 61.834214 0 0 0
1586 3 0.699112 -7.990885 61.834214 0 0 0
1587 3 -2.076093 -7.748086 61.834214 0 0 0
1588 3 -3.389994 -7.269866 61.834214 0 0 0
1589 3 -5.671993 -5.671993 61.834214 0 0 0
1590 3 -6.570754 -4.600891 61.834214 0 0 0
1591 3 -7.748086 -2.076093 61.834214 0 0 0
1592 3 -7.990885 -0.699112 61.834214 0 0 0
1605 3 7.748086 -2.076093 61.834214 0 0 0
1606 3 7.269866 -3.389994 61.834214 0 0 0
1607 3 5.671993 -5.671993 61.834214 0 0 0
1608 3 4.600891 -6.570754 61.834214 0 0 0
1609 3 0 -8.021409 63.046649 0 0 0
1610 3 -1.392903 -7.899546 63.046649 0 0 0
1611 3 -4.010705 -6.946744 63.046649 0 0 0
1612 3 -5.156062 -6.144756 63.046649 0 0 0
1613 3 -6.946744 -4.010705 63.046649 0 0 0
1614 3 -7.537659 -2.743484 63.046649 0 0 0
1628 3 7.899546 -1.392903 63.046649 0 0 0
1629 3 6.946744 -4.010705 63.046649 0 0 0
1630 3 6.144756 -5.156062 63.046649 0 0 0
1631 3 4.010705 -6.946744 63.046649 0 0 0
1632 3 2.743484 -7.537659 63.046649 0 0 0
1633 3 -2.076093 -7.748086 64.259085 0 0 0
1634 3 -3.389994 -7.269866 64.259085 0 0 0
1635 3 -5.671993 -5.671993 64.259085 0 0 0
1636 3 -6.570754 -4.600891 64.259085 0 0 0
1637 3 -7.748086 -2.076093 64.259085 0 0 0
1638 3 -7.990885 -0.699112 64.259085 0 0 0
1651 3 7.748086 -2.076093 64.259085 0 0 0
1652 3 7.269866 -3.389994 64.259085 0 0 0
1653 3 5.671993 -5.671993 64.259085 0 0 0
1654 3 4.600891 -6.570754 64.259085 0 0 0
1655 3 2.076093 -7.748086 64.259085 0 0 0
1656 3 0.699112 -7.990885 64.259085 0 0 0
1657 3 -4.010705 -6.946744 65.471521 0 0 0
1658 3 -5.156062 -6.144756 65.471521 0 0 0
1659 3 -6.946744 -4.010705 65.471521 0 0 0
1660 3 -7.537659 -2.743484 65.471521 0 0 0
1674 3 7.899546 -1.392903 65.471521 0 0 0
1675 3 6.946744 -4.010705 65.471521 0 0 0
1676 3 6.144756 -5.156062 65.471521 0 0 0
1677 3 4.010705 -6.946744 65.471521 0 0 0
1678 3 2.743484 -7.537659 65.471521 0 0 0
1679 3 0 -8.021409 65.471521 0 0 0
1680 3 -1.392903 -7.899546 65.471521 0 0 0
2571 2 -1.490547 -0.315585 62.557156 0 0 0
2572 2 0.242653 -1.149185 60.554656 0 0 0
2573 2 0.334253 -1.439285 59.196256 0 0 0
2576 2 0.450053 -0.408085 58.268556 0 0 0
2585 2 -4.859447 -0.828285 61.984756 0 0 0
2587 2 -3.614047 -1.030985 62.563056 0 0 0
2593 2 -3.259947 -2.919085 61.125756 0 0 0
2594 2 -4.512147 -2.718185 60.552956 0 0 0
2595 2 -2.808447 -2.074185 62.134556 0 0 0
2596 2 -5.317747 -1.670785 60.983456000000004 0 0 0
2597 2 -6.029347 -0.919885 60.059356 0 0 0
2598 2 -4.423447 -3.011885 59.199556 0 0 0
2599 2 -5.123347 -2.249685 58.272256 0 0 0
2600 2 -5.933447 -1.200685 58.701456 0 0 0
2601 2 -0.632747 -2.061085 61.125056 0 0 0
2602 2 -1.079647 -2.906685 60.118556 0 0 0
2603 2 -1.490647 -1.642385 62.132756 0 0 0
2604 2 -2.401347 -3.338485 60.119456 0 0 0
2605 2 -3.113147 -3.396185 58.929856 0 0 0
2606 2 -0.480247 -2.530785 58.925256 0 0 0
2607 2 -1.190147 -2.577585 57.731256 0 0 0
2608 2 -2.513147 -3.011185 57.736156 0 0 0
2609 2 -4.951947 -0.584085 56.791356 0 0 0
2610 2 -4.517147 -1.875185 57.080956 0 0 0
2611 2 -3.207647 -2.252685 56.804756 0 0 0
2615 2 -5.834747 -0.168685 57.778556 0 0 0
2625 2 -2.323047 -1.355285 56.223156 0 0 0
2626 2 -1.070847 -1.554285 56.798456 0 0 0
2627 2 -0.250747 -0.468085 57.072156 0 0 0
2628 2 -2.747347 -0.070285 55.930756 0 0 0
2669 1 0.590871 -0.584085 65.709157 0 0 0
2670 1 1.025671 -1.875185 65.998757 0 0 0
2671 1 2.335171 -2.252685 65.722557 0 0 0
2685 1 3.219771 -1.355285 65.140957 0 0 0
2686 1 4.471971 -1.554285 65.716257 0 0 0
2687 1 5.292071 -0.468085 65.989957 0 0 0
2688 1 2.795471 -0.070285 64.848557 0 0 0
901 3 7.748086 -2.076093 44.860116 0 0 0
902 3 7.269866 -3.389994 44.860116 0 0 0
903 3 5.671993 -5.671993 44.860116 0 0 0
904 3 4.600891 -6.570754 44.860116 0 0 0
905 3 2.076093 -7.748086 44.860116 0 0 0
906 3 0.699112 -7.990885 44.860116 0 0 0
907 3 -2.076093 -7.748086 44.860116 0 0 0