LAMMPS (23 Jun 2022 - Update 1)
OMP_NUM_THREADS environment is not set. Defaulting to 1 thread. (../comm.cpp:98)
  using 1 OpenMP thread(s) per MPI task
Reading data file ...
  orthogonal box = (-25.0214 -25.0214 -39.404249) to (25.0214 25.0214 76.989751)
  1 by 2 by 4 MPI processor grid
  reading atoms ...
  3024 atoms
  read_data CPU = 0.089 seconds
Reading airebo potential file CH.airebo with DATE: 2011-10-25
Reading airebo potential file CH.airebo with DATE: 2011-10-25
Reading airebo potential file CH.airebo with DATE: 2011-10-25
Neighbor list info ...
  update every 1 steps, delay 0 steps, check yes
  max neighbors/atom: 2000, page size: 100000
  master list distance cutoff = 13.2
  ghost atom cutoff = 13.2
  binsize = 6.6, bins = 8 8 18
  6 neighbor lists, perpetual/occasional/extra = 6 0 0
  (1) pair airebo, perpetual, skip from (5)
      attributes: full, newton on, ghost
      pair build: skip/ghost
      stencil: none
      bin: none
  (2) pair airebo, perpetual, skip from (5)
      attributes: full, newton on, ghost
      pair build: skip/ghost
      stencil: none
      bin: none
  (3) pair airebo, perpetual, skip from (5)
      attributes: full, newton on, ghost
      pair build: skip/ghost
      stencil: none
      bin: none
  (4) pair lj/cut, perpetual, skip from (6)
      attributes: half, newton on
      pair build: skip
      stencil: none
      bin: none
  (5) neighbor class addition, perpetual
      attributes: full, newton on, ghost
      pair build: full/bin/ghost
      stencil: full/ghost/bin/3d
      bin: standard
  (6) neighbor class addition, perpetual
      attributes: half, newton on
      pair build: half/bin/atomonly/newton
      stencil: half/bin/3d
      bin: standard
Setting up sd style minimization ...
  Unit style    : metal
  Current step  : 0
Per MPI rank memory allocation (min/avg/max) = 10.25 | 10.25 | 10.25 Mbytes
   Step          Temp          E_pair         E_mol          TotEng         Press     
         0   0             -20987.364      0             -20987.364      27882.702    
        14   0             -21946.82       0             -21946.82       631.53972    
Loop time of 0.127976 on 8 procs for 14 steps with 3024 atoms

98.8% CPU use with 8 MPI tasks x 1 OpenMP threads

Minimization stats:
  Stopping criterion = energy tolerance
  Energy initial, next-to-last, final = 
     -20987.3641320402  -21945.2476008186  -21946.8197421693
  Force two-norm initial, final = 775.07538 18.985723
  Force max component initial, final = 108.2718 2.6933237
  Final line search alpha, max atom move = 0.068300328 0.18395489
  Iterations, force evaluations = 14 23

MPI task timing breakdown:
Section |  min time  |  avg time  |  max time  |%varavg| %total
---------------------------------------------------------------
Pair    | 0.11786    | 0.12165    | 0.12571    |   0.8 | 95.06
Neigh   | 0          | 0          | 0          |   0.0 |  0.00
Comm    | 0.0015572  | 0.0053949  | 0.0088739  |   3.7 |  4.22
Output  | 0          | 0          | 0          |   0.0 |  0.00
Modify  | 0          | 0          | 0          |   0.0 |  0.00
Other   |            | 0.0009335  |            |       |  0.73

Nlocal:            378 ave         390 max         366 min
Histogram: 4 0 0 0 0 0 0 0 0 4
Nghost:           1060 ave        1072 max        1048 min
Histogram: 4 0 0 0 0 0 0 0 0 4
Neighs:              0 ave           0 max           0 min
Histogram: 8 0 0 0 0 0 0 0 0 0

Total # of neighbors = 0
Ave neighs/atom = 0
Neighbor list builds = 0
Dangerous builds = 0
Setting up Verlet run ...
  Unit style    : metal
  Current step  : 14
  Time step     : 0.001
Per MPI rank memory allocation (min/avg/max) = 10.88 | 10.88 | 10.88 Mbytes
   Step          Temp          E_pair         E_mol          TotEng         Press          Volume    
        14   300           -21946.82       0             -21829.594      1061.1052      291483.38    
Loop time of 2.68025e-06 on 8 procs for 0 steps with 3024 atoms

42.0% CPU use with 8 MPI tasks x 1 OpenMP threads

MPI task timing breakdown:
Section |  min time  |  avg time  |  max time  |%varavg| %total
---------------------------------------------------------------
Pair    | 0          | 0          | 0          |   0.0 |  0.00
Neigh   | 0          | 0          | 0          |   0.0 |  0.00
Comm    | 0          | 0          | 0          |   0.0 |  0.00
Output  | 0          | 0          | 0          |   0.0 |  0.00
Modify  | 0          | 0          | 0          |   0.0 |  0.00
Other   |            | 2.68e-06   |            |       |100.00

Nlocal:            378 ave         382 max         374 min
Histogram: 2 0 0 2 0 0 2 0 0 2
Nghost:           1062 ave        1066 max        1058 min
Histogram: 2 0 0 2 0 0 2 0 0 2
Neighs:              0 ave           0 max           0 min
Histogram: 8 0 0 0 0 0 0 0 0 0

Total # of neighbors = 0
Ave neighs/atom = 0
Neighbor list builds = 0
Dangerous builds = 0
Setting up Verlet run ...
  Unit style    : metal
  Current step  : 0
  Time step     : 0.001
Per MPI rank memory allocation (min/avg/max) = 13.66 | 13.66 | 13.66 Mbytes
   Step         PotEng         KinEng         TotEng           Lx             Ly             Lz      
         0  -21946.82       117.22603     -21829.594      50.0428        50.0428        116.394      
       100  -21928.843      109.3629      -21819.48       50.048242      50.030905      116.4522     
       200  -21934.268      116.46571     -21817.803      50.046416      50.006044      116.51039    
       300  -21931.537      113.15285     -21818.384      50.06871       49.995766      116.56859    
       400  -21936.131      121.76232     -21814.368      50.073646      49.971559      116.62679    
       500  -21928.066      119.99226     -21808.073      50.097063      49.960109      116.68499    
       600  -21927.848      124.41317     -21803.435      50.105435      49.948384      116.74318    
       700  -21918.128      118.3423      -21799.786      50.109672      49.952882      116.80138    
       800  -21904.483      112.65653     -21791.827      50.110275      49.970292      116.85958    
       900  -21903.904      118.842       -21785.062      50.083964      49.980199      116.91777    
      1000  -21907.692      122.22018     -21785.472      50.06951       49.999839      116.97597    
      1100  -21913.032      120.47463     -21792.557      50.045299      50.011359      117.03417    
      1200  -21918.545      119.19967     -21799.345      50.029537      50.025121      117.09236    
      1300  -21909.258      108.1294      -21801.129      50.016695      50.038125      117.15056    
      1400  -21901.907      108.65102     -21793.256      50.000291      50.047766      117.20876    
      1500  -21905.702      120.03505     -21785.667      49.994087      50.063921      117.26695    
      1600  -21896.713      113.59512     -21783.118      49.984175      50.065956      117.32515    
      1700  -21893.913      117.59059     -21776.322      49.98466       50.067287      117.38335    
      1800  -21894.432      121.93603     -21772.496      49.98947       50.063614      117.44155    
      1900  -21898.026      123.14051     -21774.886      49.994722      50.049974      117.49974    
      2000  -21903.747      122.13669     -21781.61       50.010897      50.040187      117.55794    
      2100  -21904.002      117.00755     -21786.994      50.020576      50.022858      117.61614    
      2200  -21907.702      118.86558     -21788.836      50.035078      50.010447      117.67433    
      2300  -21906.277      115.76422     -21790.513      50.042769      49.995188      117.73253    
      2400  -21905.086      114.78243     -21790.304      50.054389      49.98349       117.79073    
      2500  -21900.036      114.58651     -21785.449      50.063161      49.976157      117.84893    
      2600  -21897.14       117.33912     -21779.801      50.061925      49.97257       117.90712    
      2700  -21893.081      118.00461     -21775.076      50.060675      49.977942      117.96532    
      2800  -21891.983      118.22671     -21773.756      50.050085      49.98326       118.02352    
      2900  -21896.703      120.48292     -21776.221      50.039815      49.992122      118.08171    
      3000  -21896.244      117.28576     -21778.958      50.028188      49.99924       118.13991    
      3100  -21898.958      117.98955     -21780.968      50.019142      50.005817      118.19811    
      3200  -21894.83       112.32066     -21782.51       50.011973      50.011516      118.2563     
      3300  -21890.85       113.20864     -21777.641      50.004942      50.014328      118.3145     
      3400  -21886.266      113.51387     -21772.752      50.002583      50.017185      118.3727     
      3500  -21884.72       117.81181     -21766.908      50.001526      50.016238      118.43089    
      3600  -21886.537      121.2598      -21765.277      50.001964      50.012828      118.48909    
      3700  -21889.734      120.4546      -21769.28       50.003107      50.008669      118.54729    
      3800  -21889.858      118.20144     -21771.657      50.001236      50.003894      118.60549    
      3900  -21883.484      112.60107     -21770.883      49.997541      50.000268      118.66368    
      4000  -21879.269      114.8407      -21764.428      49.995725      50.000614      118.72188    
      4100  -21880.561      120.47423     -21760.087      49.991367      50.000104      118.78008    
      4200  -21878.228      118.46144     -21759.767      49.989785      50.001191      118.83827    
      4300  -21877.763      117.40719     -21760.356      49.987731      50.000881      118.89647    
      4400  -21877.975      116.49129     -21761.484      49.987077      50.000538      118.95467    
      4500  -21877.235      114.68659     -21762.548      49.985891      50.000105      119.01287    
      4600  -21876.592      117.40471     -21759.187      49.982096      49.99831       119.07106    
      4700  -21869.521      114.65444     -21754.866      49.980697      49.999758      119.12926    
      4800  -21868.91       117.29816     -21751.612      49.976151      49.997773      119.18746    
      4900  -21873.013      121.18004     -21751.833      49.975195      49.997095      119.24565    
      5000  -21870.837      116.15025     -21754.686      49.97316       49.993879      119.30385    
      5100  -21869.449      115.17084     -21754.278      49.973005      49.992026      119.36205    
      5200  -21861.917      113.46725     -21748.449      49.971905      49.988259      119.42024    
      5300  -21866.686      121.09392     -21745.592      49.971427      49.984762      119.47844    
      5400  -21862.609      115.36096     -21747.248      49.973586      49.983684      119.53664    
      5500  -21861.473      116.30589     -21745.168      49.970442      49.978813      119.59484    
      5600  -21858.852      118.16657     -21740.686      49.971957      49.979191      119.65303    
      5700  -21856.435      117.77503     -21738.66       49.966813      49.975322      119.71123    
      5800  -21857.631      119.18273     -21738.448      49.965876      49.974997      119.76943    
      5900  -21857.054      118.92233     -21738.131      49.964353      49.973791      119.82762    
      6000  -21854.951      116.78512     -21738.165      49.961418      49.971281      119.88582    
      6100  -21852.56       117.08961     -21735.47       49.961521      49.971494      119.94402    
      6200  -21848.549      118.58368     -21729.966      49.958156      49.967488      120.00221    
      6300  -21844.046      117.53582     -21726.511      49.95976       49.96679       120.06041    
      6400  -21844.093      118.45726     -21725.636      49.958127      49.961667      120.11861    
      6500  -21841.911      115.65818     -21726.253      49.956836      49.95698       120.17681    
      6600  -21847.49       120.84235     -21726.648      49.957303      49.95479       120.235      
      6700  -21843.096      116.64335     -21726.453      49.953734      49.950516      120.2932     
      6800  -21839.504      115.88321     -21723.62       49.95377       49.94965       120.3514     
      6900  -21836.059      117.60298     -21718.456      49.951328      49.946678      120.40959    
      7000  -21834.067      118.74118     -21715.326      49.948205      49.944718      120.46779    
      7100  -21831.19       116.15187     -21715.039      49.94571       49.943814      120.52599    
      7200  -21832.955      117.70125     -21715.254      49.941543      49.940561      120.58418    
      7300  -21829.473      114.886       -21714.587      49.941481      49.939858      120.64238    
      7400  -21825.699      114.17906     -21711.519      49.937392      49.935289      120.70058    
      7500  -21823.665      116.8176      -21706.847      49.936421      49.934228      120.75877    
      7600  -21823.948      120.48886     -21703.459      49.932849      49.931763      120.81697    
      7700  -21817.772      115.88774     -21701.884      49.928685      49.929412      120.87517    
      7800  -21817.162      117.61753     -21699.545      49.927554      49.929233      120.93337    
      7900  -21814.829      116.63279     -21698.196      49.924356      49.925287      120.99156    
      8000  -21814.08       114.86349     -21699.217      49.924059      49.922282      121.04976    
      8100  -21816.134      118.61873     -21697.516      49.923101      49.918343      121.10796    
      8200  -21808.814      115.63197     -21693.182      49.922965      49.915689      121.16615    
      8300  -21806.996      119.84783     -21687.149      49.921307      49.913245      121.22435    
      8400  -21803.542      118.58592     -21684.956      49.916621      49.90886       121.28255    
      8500  -21804.572      119.42756     -21685.145      49.915204      49.906515      121.34074    
      8600  -21803.728      119.02418     -21684.704      49.91187       49.901668      121.39894    
      8700  -21800.582      116.9649      -21683.618      49.91042       49.898253      121.45714    
      8800  -21798.211      116.68829     -21681.523      49.908922      49.894387      121.51534    
      8900  -21792.773      115.52079     -21677.252      49.906753      49.889565      121.57353    
      9000  -21789.71       119.90364     -21669.806      49.905781      49.885856      121.63173    
      9100  -21786.893      118.61883     -21668.274      49.903016      49.880713      121.68993    
      9200  -21788.521      119.81935     -21668.702      49.900894      49.878322      121.74812    
      9300  -21787.132      118.03453     -21669.098      49.895792      49.875415      121.80632    
      9400  -21784.631      116.36036     -21668.271      49.890272      49.873308      121.86452    
      9500  -21779.215      114.6569      -21664.558      49.886861      49.873034      121.92272    
      9600  -21776.888      118.11015     -21658.778      49.880899      49.869548      121.98091    
      9700  -21771.841      115.91287     -21655.928      49.878712      49.868372      122.03911    
      9800  -21771.227      116.89402     -21654.333      49.876008      49.864983      122.09731    
      9900  -21771.207      117.47521     -21653.732      49.872773      49.860278      122.1555     
     10000  -21770.436      116.12227     -21654.314      49.871343      49.857925      122.2137     
     10100  -21764.624      112.68713     -21651.937      49.866567      49.852956      122.2719     
     10200  -21759.656      116.19609     -21643.46       49.865672      49.851508      122.33009    
     10300  -21758.923      119.26787     -21639.655      49.861278      49.846087      122.38829    
     10400  -21757.693      118.62184     -21639.071      49.858507      49.841825      122.44649    
     10500  -21755.301      117.29318     -21638.008      49.855979      49.837257      122.50468    
     10600  -21750.883      114.30654     -21636.577      49.852419      49.831494      122.56288    
     10700  -21748.254      114.1825      -21634.072      49.850612      49.827356      122.62108    
     10800  -21745.604      117.56844     -21628.035      49.847309      49.821615      122.67928    
     10900  -21739.866      116.20844     -21623.658      49.844886      49.816773      122.73747    
     11000  -21740.584      117.84553     -21622.738      49.841474      49.809685      122.79567    
     11100  -21739.375      115.50202     -21623.873      49.839429      49.802995      122.85387    
     11200  -21737.028      115.36756     -21621.66       49.837483      49.79629       122.91206    
     11300  -21731.299      114.35196     -21616.947      49.835149      49.790687      122.97026    
     11400  -21728.583      117.47184     -21611.111      49.832029      49.785773      123.02846    
     11500  -21723.484      115.86401     -21607.62       49.827774      49.781331      123.08666    
     11600  -21722.504      117.64375     -21604.861      49.821895      49.776996      123.14485    
     11700  -21721.833      117.1988      -21604.634      49.81715       49.774357      123.20305    
     11800  -21722.399      117.02959     -21605.369      49.810139      49.771146      123.26125    
     11900  -21715.14       114.08845     -21601.051      49.804029      49.768933      123.31944    
     12000  -21711.815      117.30831     -21594.506      49.796589      49.76561       123.37764    
     12100  -21710.438      120.9159      -21589.522      49.791044      49.761909      123.43584    
     12200  -21704.48       117.6468      -21586.833      49.785579      49.757297      123.49403    
     12300  -21703.442      118.41211     -21585.029      49.780338      49.752159      123.55223    
     12400  -21700.127      115.60413     -21584.523      49.776043      49.747165      123.61043    
     12500  -21698.221      116.07786     -21582.143      49.770525      49.740425      123.66863    
     12600  -21690.539      115.85399     -21574.685      49.76646       49.735021      123.72682    
     12700  -21685.89       116.46283     -21569.428      49.761761      49.728964      123.78502    
     12800  -21686.119      119.44654     -21566.673      49.756844      49.723088      123.84322    
     12900  -21681.329      114.93651     -21566.392      49.751514      49.716749      123.90141    
     13000  -21681.92       116.16268     -21565.757      49.747718      49.710629      123.95961    
     13100  -21678.006      115.73176     -21562.274      49.742801      49.702198      124.01781    
     13200  -21675.579      117.25398     -21558.325      49.739389      49.695159      124.076      
     13300  -21670.843      117.53908     -21553.304      49.734557      49.686849      124.1342     
     13400  -21667.382      118.54219     -21548.84       49.72942       49.679736      124.1924     
     13500  -21666.371      120.07598     -21546.295      49.723059      49.67277       124.2506     
     13600  -21662.464      114.08665     -21548.377      49.715934      49.665933      124.30879    
     13700  -21658.417      114.06853     -21544.349      49.709515      49.66032       124.36699    
     13800  -21652.753      115.49583     -21537.257      49.701377      49.65391       124.42519    
     13900  -21647.289      115.42465     -21531.864      49.693954      49.647951      124.48338    
     14000  -21644.73       116.54645     -21528.184      49.686265      49.641776      124.54158    
     14100  -21644.903      118.22253     -21526.681      49.678243      49.636138      124.59978    
     14200  -21642.699      115.49565     -21527.204      49.670072      49.630511      124.65797    
     14300  -21640.624      116.06438     -21524.56       49.661739      49.624306      124.71617    
     14400  -21634.372      116.13187     -21518.24       49.653448      49.617594      124.77437    
     14500  -21629.676      116.68586     -21512.99       49.64598       49.610649      124.83257    
     14600  -21626.54       118.16495     -21508.375      49.636936      49.602295      124.89076    
     14700  -21619.904      115.6391      -21504.265      49.629113      49.595585      124.94896    
     14800  -21619.281      118.00076     -21501.28       49.61953       49.586994      125.00716    
     14900  -21616.724      116.57771     -21500.146      49.610686      49.578782      125.06535    
     15000  -21613.283      115.14411     -21498.139      49.602307      49.570133      125.12355    
     15100  -21610.125      118.1075      -21492.018      49.593027      49.559938      125.18175    
     15200  -21602.937      118.00778     -21484.929      49.585281      49.550707      125.23994    
     15300  -21599.658      119.44269     -21480.216      49.575049      49.538905      125.29814    
     15400  -21597.346      118.61102     -21478.735      49.567205      49.52962       125.35634    
     15500  -21593.11       117.26753     -21475.842      49.557274      49.518526      125.41454    
     15600  -21587.619      115.0439      -21472.575      49.547869      49.508547      125.47273    
     15700  -21585.64       117.41116     -21468.229      49.537546      49.49879       125.53093    
     15800  -21583.292      118.56126     -21464.731      49.52669       49.487946      125.58913    
     15900  -21577.613      115.57873     -21462.034      49.516631      49.476862      125.64732    
     16000  -21574.741      117.35792     -21457.384      49.506258      49.46519       125.70552    
     16100  -21566.911      116.77941     -21450.132      49.496106      49.454171      125.76372    
     16200  -21564.472      119.51061     -21444.961      49.48452       49.442376      125.82191    
     16300  -21561.642      117.76613     -21443.876      49.473143      49.431459      125.88011    
     16400  -21558.895      116.04384     -21442.851      49.461688      49.41994       125.93831    
     16500  -21554.135      115.60876     -21438.526      49.449955      49.407405      125.9965     
     16600  -21549.577      116.43645     -21433.141      49.437969      49.394474      126.0547     
     16700  -21546.859      118.67634     -21428.182      49.426222      49.381295      126.1129     
     16800  -21542.361      118.50714     -21423.853      49.413418      49.367469      126.1711     
     16900  -21536.631      115.27753     -21421.353      49.4003        49.353621      126.22929    
     17000  -21535.354      115.75065     -21419.603      49.387445      49.339582      126.28749    
     17100  -21534.205      116.88378     -21417.321      49.374597      49.324856      126.34569    
     17200  -21530.414      117.79989     -21412.614      49.36179       49.309145      126.40388    
     17300  -21520.862      116.84325     -21404.018      49.349094      49.293341      126.46208    
     17400  -21516.855      117.89125     -21398.964      49.334659      49.277446      126.52028    
     17500  -21514.019      116.87941     -21397.14       49.320123      49.261667      126.57847    
     17600  -21513.32       118.19836     -21395.121      49.304558      49.245659      126.63667    
     17700  -21506.289      116.0759      -21390.213      49.288353      49.229598      126.69487    
     17800  -21500.633      115.72408     -21384.909      49.27228       49.21413       126.75307    
     17900  -21500.652      120.55782     -21380.094      49.254987      49.197089      126.81126    
     18000  -21491.931      116.35249     -21375.578      49.239243      49.180879      126.86946    
     18100  -21488.758      118.08632     -21370.672      49.221892      49.163375      126.92766    
     18200  -21486.662      119.86283     -21366.799      49.204771      49.14603       126.98585    
     18300  -21481.427      116.87263     -21364.554      49.187393      49.12849       127.04405    
     18400  -21477.801      115.82364     -21361.977      49.169214      49.110562      127.10225    
     18500  -21473.932      116.20192     -21357.73       49.150924      49.092944      127.16045    
     18600  -21470.006      119.55654     -21350.45       49.132033      49.07425       127.21864    
     18700  -21462.6        118.29329     -21344.307      49.114601      49.055182      127.27684    
     18800  -21459.494      117.46669     -21342.027      49.09665       49.03449       127.33504    
     18900  -21456.231      114.44703     -21341.784      49.07853       49.013638      127.39323    
     19000  -21453.318      116.34922     -21336.968      49.059457      48.992117      127.45143    
     19100  -21445.877      115.08878     -21330.789      49.040305      48.970997      127.50963    
     19200  -21442.26       117.58334     -21324.677      49.020237      48.949909      127.56782    
     19300  -21437.654      118.29457     -21319.359      49.00005       48.928766      127.62602    
     19400  -21435.706      120.66576     -21315.041      48.980347      48.908304      127.68422    
     19500  -21427.009      115.62855     -21311.381      48.959546      48.887735      127.74242    
     19600  -21423.501      116.18928     -21307.311      48.938432      48.86743       127.80061    
     19700  -21421.463      118.48306     -21302.98       48.917665      48.847335      127.85881    
     19800  -21417.859      119.49657     -21298.362      48.895981      48.825596      127.91701    
     19900  -21410.55       117.85544     -21292.695      48.875938      48.803608      127.9752     
     20000  -21405.317      117.84459     -21287.473      48.855822      48.781199      128.0334     
     20100  -21399.594      115.84391     -21283.75       48.834901      48.759169      128.0916     
     20200  -21395.669      114.34364     -21281.325      48.813433      48.737273      128.14979    
     20300  -21396.05       117.11938     -21278.931      48.791041      48.715821      128.20799    
     20400  -21388.242      114.82881     -21273.413      48.769044      48.69528       128.26619    
     20500  -21382.256      118.20903     -21264.047      48.745648      48.67332       128.32439    
     20600  -21376.135      117.00411     -21259.131      48.724584      48.652688      128.38258    
     20700  -21375.056      118.13992     -21256.916      48.703607      48.631247      128.44078    
     20800  -21371.687      117.53406     -21254.153      48.682213      48.608264      128.49898    
     20900  -21365.816      115.78786     -21250.028      48.663618      48.587074      128.55717    
     21000  -21359.336      116.11152     -21243.225      48.643179      48.564179      128.61537    
     21100  -21355.67       120.06762     -21235.602      48.623227      48.542168      128.67357    
     21200  -21348.168      117.45826     -21230.71       48.602972      48.520667      128.73176    
     21300  -21343.637      114.87332     -21228.764      48.581047      48.498691      128.78996    
     21400  -21342.72       116.03853     -21226.682      48.561585      48.47925       128.84816    
     21500  -21337.864      115.75701     -21222.107      48.540592      48.458006      128.90636    
     21600  -21330.624      118.82282     -21211.801      48.520992      48.437692      128.96455    
     21700  -21324.374      118.7735      -21205.601      48.501833      48.417945      129.02275    
     21800  -21321.264      118.17364     -21203.09       48.4813        48.39682       129.08095    
     21900  -21317.789      116.17721     -21201.612      48.463697      48.378194      129.13914    
     22000  -21312.587      115.8504      -21196.737      48.443539      48.357485      129.19734    
     22100  -21305.444      115.5559      -21189.888      48.425528      48.339369      129.25554    
     22200  -21303.38       120.33527     -21183.045      48.406896      48.32111       129.31373    
     22300  -21295.669      117.42701     -21178.242      48.38773       48.302494      129.37193    
     22400  -21294.05       119.88355     -21174.166      48.371685      48.285668      129.43013    
     22500  -21287.774      117.33727     -21170.437      48.352487      48.266279      129.48833    
     22600  -21284.56       117.06955     -21167.491      48.336056      48.249724      129.54652    
     22700  -21279.573      115.56189     -21164.012      48.318777      48.23322       129.60472    
     22800  -21274.421      119.31115     -21155.11       48.30113       48.216327      129.66292    
     22900  -21263.548      115.59007     -21147.958      48.286375      48.201878      129.72111    
     23000  -21263.483      119.40988     -21144.073      48.268578      48.184062      129.77931    
     23100  -21257.166      114.58198     -21142.584      48.254786      48.168649      129.83751    
     23200  -21253.205      114.91732     -21138.288      48.239918      48.151659      129.8957     
     23300  -21246.977      114.99711     -21131.98       48.225416      48.135322      129.9539     
     23400  -21243.99       118.35372     -21125.636      48.212722      48.12179       130.0121     
     23500  -21238.289      118.49283     -21119.796      48.197654      48.106537      130.07029    
     23600  -21231.215      116.80187     -21114.413      48.184982      48.093605      130.12849    
     23700  -21227.776      118.35941     -21109.416      48.170695      48.078972      130.18669    
     23800  -21221.536      116.50433     -21105.031      48.157047      48.065234      130.24489    
     23900  -21217.301      115.63577     -21101.666      48.144994      48.052973      130.30308    
     24000  -21215.092      114.14827     -21100.943      48.131761      48.039117      130.36128    
     24100  -21211.122      115.69918     -21095.423      48.120476      48.026812      130.41948    
     24200  -21203.15       116.56479     -21086.585      48.109269      48.01379       130.47767    
     24300  -21196.976      117.44359     -21079.533      48.098761      48.00091       130.53587    
     24400  -21191.005      116.72658     -21074.279      48.088284      47.988634      130.59407    
     24500  -21185.751      115.26056     -21070.491      48.076451      47.976137      130.65226    
     24600  -21181.513      114.09083     -21067.422      48.065745      47.965083      130.71046    
     24700  -21176.186      115.01686     -21061.169      48.054315      47.954405      130.76866    
     24800  -21171.327      119.29102     -21052.036      48.043451      47.944686      130.82686    
     24900  -21163.558      116.89255     -21046.666      48.033164      47.935686      130.88505    
     25000  -21159.991      117.00161     -21042.989      48.022434      47.925786      130.94325    
     25100  -21156.879      115.61943     -21041.259      48.013306      47.916593      131.00145    
     25200  -21152.946      114.82665     -21038.119      48.003981      47.906632      131.05964    
     25300  -21145.467      117.4184      -21028.048      47.994657      47.895954      131.11784    
     25400  -21139.221      118.52658     -21020.694      47.987046      47.886522      131.17604    
     25500  -21134.413      118.81906     -21015.594      47.97789       47.875847      131.23424    
     25600  -21126.838      115.90657     -21010.931      47.970263      47.867367      131.29243    
     25700  -21126.694      119.82046     -21006.873      47.962202      47.858877      131.35063    
     25800  -21119.24       115.89835     -21003.341      47.953799      47.850632      131.40883    
     25900  -21113.686      114.87488     -20998.811      47.945923      47.84305       131.46702    
     26000  -21105.726      115.49915     -20990.227      47.937267      47.834099      131.52522    
     26100  -21100.676      118.91502     -20981.761      47.930109      47.826023      131.58342    
     26200  -21096.063      118.65925     -20977.403      47.922604      47.817028      131.64161    
     26300  -21091.176      115.59703     -20975.579      47.91608       47.808774      131.69981    
     26400  -21086.968      116.42078     -20970.547      47.909152      47.80017       131.75801    
     26500  -21078.213      115.31782     -20962.895      47.901877      47.792544      131.8162     
     26600  -21073.082      117.0698      -20956.012      47.893879      47.786094      131.8744     
     26700  -21066.905      116.08634     -20950.819      47.884274      47.779039      131.9326     
     26800  -21061.661      115.93655     -20945.724      47.877598      47.773754      131.9908     
     26900  -21058.701      117.98827     -20940.713      47.870419      47.767106      132.04899    
     27000  -21053.99       115.01606     -20938.974      47.863328      47.760884      132.10719    
     27100  -21048.352      113.11884     -20935.233      47.856671      47.754514      132.16539    
     27200  -21042.93       117.28849     -20925.642      47.85026       47.747027      132.22358    
     27300  -21035.22       117.11277     -20918.108      47.845075      47.739755      132.28178    
     27400  -21030.808      118.90034     -20911.908      47.838371      47.731081      132.33998    
     27500  -21027.114      120.26319     -20906.851      47.832939      47.724712      132.39818    
     27600  -21021.708      117.45499     -20904.253      47.826179      47.718703      132.45637    
     27700  -21016.213      114.90639     -20901.307      47.818642      47.71296       132.51457    
     27800  -21009.905      116.1664      -20893.739      47.811605      47.707981      132.57277    
     27900  -21001.223      116.73959     -20884.483      47.804127      47.702026      132.63096    
     28000  -20995.709      117.27109     -20878.438      47.798212      47.696581      132.68916    
     28100  -20991.143      117.88845     -20873.254      47.791467      47.689741      132.74736    
     28200  -20984.593      115.7         -20868.893      47.786612      47.683599      132.80555    
     28300  -20980.145      116.52368     -20863.622      47.781896      47.677101      132.86375    
     28400  -20974.384      118.49386     -20855.89       47.776613      47.670434      132.92195    
     28500  -20968.949      120.9975      -20847.951      47.771363      47.665087      132.98014    
     28600  -20960.702      118.7726      -20841.929      47.764064      47.659326      133.03834    
     28700  -20956.966      116.65525     -20840.311      47.757403      47.655163      133.09654    
     28800  -20953.531      116.62016     -20836.91       47.749378      47.64976       133.15474    
     28900  -20945.657      115.58189     -20830.075      47.742477      47.644744      133.21293    
     29000  -20940.639      119.14636     -20821.493      47.736464      47.640168      133.27113    
     29100  -20933.251      118.31025     -20814.941      47.729365      47.634155      133.32933    
     29200  -20926.87       117.14219     -20809.728      47.723982      47.629529      133.38752    
     29300  -20920.272      115.53046     -20804.741      47.71827       47.624413      133.44572    
     29400  -20914.722      115.08429     -20799.637      47.711635      47.618423      133.50392    
     29500  -20911.969      117.94559     -20794.023      47.706611      47.613982      133.56212    
     29600  -20904.05       115.00116     -20789.048      47.700103      47.608739      133.62031    
     29700  -20900.799      117.04563     -20783.753      47.693146      47.604364      133.67851    
     29800  -20894.548      117.43718     -20777.111      47.68709       47.600932      133.73671    
     29900  -20886.801      118.12991     -20768.671      47.679183      47.594759      133.7949     
     30000  -20878.401      117.82608     -20760.575      47.673549      47.589779      133.8531     
     30100  -20872.729      115.96639     -20756.763      47.667386      47.58361       133.9113     
     30200  -20873.928      118.2412      -20755.686      47.661199      47.577416      133.96949    
     30300  -20866.147      116.59383     -20749.553      47.656125      47.572501      134.02769    
     30400  -20858.968      117.8352      -20741.133      47.649678      47.566336      134.08589    
     30500  -20849.436      115.89828     -20733.537      47.645228      47.56218       134.14409    
     30600  -20844.587      116.88317     -20727.704      47.639048      47.556114      134.20228    
     30700  -20839.992      114.48792     -20725.504      47.633308      47.550942      134.26048    
     30800  -20834.983      113.36665     -20721.616      47.627119      47.54608       134.31868    
     30900  -20833.732      120.15286     -20713.58       47.620453      47.540808      134.37687    
     31000  -20822.656      118.16363     -20704.492      47.614982      47.536474      134.43507    
     31100  -20815.446      117.60093     -20697.845      47.608201      47.530061      134.49327    
     31200  -20808.535      115.6443      -20692.891      47.603593      47.524108      134.55146    
     31300  -20804.769      115.97987     -20688.789      47.5978        47.517155      134.60966    
     31400  -20801.176      115.11349     -20686.062      47.592036      47.510902      134.66786    
     31500  -20794.815      112.64059     -20682.174      47.58638       47.506308      134.72606    
     31600  -20786.665      114.95667     -20671.708      47.579225      47.501336      134.78425    
     31700  -20780.568      116.94453     -20663.623      47.572539      47.497374      134.84245    
     31800  -20775.748      118.92517     -20656.823      47.566039      47.49233       134.90065    
     31900  -20769.612      118.38106     -20651.231      47.560266      47.486929      134.95884    
     32000  -20763.471      116.64706     -20646.824      47.554613      47.480726      135.01704    
     32100  -20758.39       115.33294     -20643.057      47.549216      47.474754      135.07524    
     32200  -20752.047      115.82697     -20636.22       47.543657      47.468997      135.13343    
     32300  -20744.252      118.56915     -20625.683      47.537165      47.46324       135.19163    
     32400  -20735.176      116.89421     -20618.282      47.530831      47.458262      135.24983    
     32500  -20732.28       118.69644     -20613.583      47.524286      47.452409      135.30802    
     32600  -20728.602      118.00676     -20610.595      47.518435      47.446594      135.36622    
     32700  -20718.62       113.20286     -20605.417      47.512703      47.440106      135.42442    
     32800  -20713.523      117.83082     -20595.692      47.506781      47.433457      135.48262    
     32900  -20705.298      118.31605     -20586.982      47.501621      47.428027      135.54081    
     33000  -20700.127      117.55593     -20582.572      47.495332      47.421673      135.59901    
     33100  -20694.66       115.62146     -20579.039      47.489972      47.415873      135.65721    
     33200  -20689.226      115.71721     -20573.509      47.484735      47.409508      135.7154     
     33300  -20682.054      116.99494     -20565.059      47.478621      47.402717      135.7736     
     33400  -20674.93       119.59098     -20555.339      47.472186      47.396683      135.8318     
     33500  -20669.807      120.098       -20549.709      47.464937      47.390428      135.88999    
     33600  -20663.716      117.86325     -20545.852      47.458475      47.384985      135.94819    
     33700  -20657.69       117.24381     -20540.446      47.451763      47.378882      136.00639    
     33800  -20652.179      117.57419     -20534.605      47.445745      47.372885      136.06459    
     33900  -20646.177      118.28542     -20527.891      47.440014      47.366034      136.12278    
     34000  -20637.147      117.76216     -20519.385      47.434632      47.358787      136.18098    
     34100  -20630.958      120.12116     -20510.837      47.429337      47.3529        136.23918    
     34200  -20625.174      118.46712     -20506.707      47.422298      47.34665       136.29737    
     34300  -20620.23       115.74264     -20504.487      47.416113      47.341273      136.35557    
     34400  -20615.733      116.94303     -20498.79       47.409804      47.335081      136.41377    
     34500  -20607.38       116.32124     -20491.059      47.40368       47.327312      136.47197    
     34600  -20601.96       119.37254     -20482.587      47.398696      47.320008      136.53016    
     34700  -20591.48       117.76659     -20473.714      47.392883      47.311776      136.58836    
     34800  -20584.097      119.67203     -20464.425      47.387135      47.304256      136.64656    
     34900  -20578.913      117.92937     -20460.984      47.381522      47.298024      136.70475    
     35000  -20575.738      117.2306      -20458.508      47.37377       47.291036      136.76295    
     35100  -20570.264      117.57632     -20452.688      47.366742      47.285747      136.82115    
     35200  -20561.275      115.43678     -20445.838      47.359298      47.280477      136.87934    
     35300  -20557.757      118.66976     -20439.088      47.350808      47.274558      136.93754    
     35400  -20549.804      117.92225     -20431.881      47.343818      47.269645      136.99574    
     35500  -20545.164      120.11166     -20425.052      47.336457      47.262994      137.05394    
     35600  -20536.871      117.84007     -20419.031      47.328958      47.255507      137.11213    
     35700  -20531.785      116.11454     -20415.671      47.32245       47.249163      137.17033    
     35800  -20528          116.56067     -20411.44       47.314314      47.241711      137.22853    
     35900  -20520.559      117.34553     -20403.213      47.306579      47.235638      137.28672    
     36000  -20514.44       122.02176     -20392.418      47.298723      47.22966       137.34492    
     36100  -20503.913      117.38578     -20386.527      47.290307      47.223085      137.40312    
     36200  -20499.06       117.26916     -20381.79       47.283045      47.217186      137.46131    
     36300  -20493.344      116.1155      -20377.228      47.275555      47.209724      137.51951    
     36400  -20486.209      114.92555     -20371.284      47.269426      47.202437      137.57771    
     36500  -20478.925      117.25351     -20361.672      47.263491      47.194487      137.63591    
     36600  -20470.986      118.35382     -20352.632      47.257271      47.186262      137.6941     
     36700  -20465.769      118.09247     -20347.677      47.251804      47.178742      137.7523     
     36800  -20462.283      117.40511     -20344.878      47.244865      47.16966       137.8105     
     36900  -20455.37       115.76741     -20339.602      47.238282      47.161679      137.86869    
     37000  -20447.247      115.24621     -20332.001      47.231327      47.15388       137.92689    
     37100  -20440.329      117.18849     -20323.141      47.223958      47.146211      137.98509    
     37200  -20433.331      118.20889     -20315.122      47.217111      47.139282      138.04328    
     37300  -20426.669      117.97886     -20308.69       47.208783      47.131604      138.10148    
     37400  -20421.216      117.90676     -20303.31       47.200488      47.1249        138.15968    
     37500  -20415.463      117.36339     -20298.1        47.191954      47.117843      138.21787    
     37600  -20407.823      114.95408     -20292.869      47.18385       47.110261      138.27607    
     37700  -20402.351      114.92501     -20287.426      47.176114      47.102141      138.33427    
     37800  -20394.322      116.23214     -20278.09       47.168282      47.093522      138.39247    
     37900  -20388.085      119.46821     -20268.617      47.161141      47.08578       138.45066    
     38000  -20381.881      118.79341     -20263.088      47.152959      47.077023      138.50886    
     38100  -20376.861      116.54628     -20260.314      47.145162      47.069063      138.56706    
     38200  -20372.049      117.21374     -20254.835      47.137253      47.061225      138.62525    
     38300  -20362.702      115.39751     -20247.304      47.12954       47.053081      138.68345    
     38400  -20354.623      115.31835     -20239.304      47.122501      47.044915      138.74165    
     38500  -20350.59       118.19905     -20232.391      47.115218      47.036444      138.79985    
     38600  -20345.214      119.45367     -20225.761      47.107626      47.027692      138.85804    
     38700  -20336.146      115.79474     -20220.351      47.100379      47.019989      138.91624    
     38800  -20329.412      113.63282     -20215.78       47.091752      47.010627      138.97444    
     38900  -20325.631      116.82719     -20208.804      47.083614      47.001559      139.03263    
     39000  -20316.001      117.14259     -20198.858      47.075947      46.992704      139.09083    
     39100  -20308.935      118.75088     -20190.184      47.06718       46.983155      139.14903    
     39200  -20301.284      116.98292     -20184.301      47.059223      46.975292      139.20722    
     39300  -20299.718      118.06498     -20181.653      47.050031      46.966917      139.26542    
     39400  -20290.759      113.37061     -20177.388      47.040857      46.959297      139.32362    
     39500  -20286.957      117.23037     -20169.727      47.03156       46.951997      139.38182    
     39600  -20277.74       116.89625     -20160.843      47.021651      46.943821      139.44001    
     39700  -20272.407      119.79835     -20152.609      47.012663      46.936109      139.49821    
     39800  -20264.082      117.56499     -20146.517      47.003933      46.927868      139.55641    
     39900  -20260.496      116.82118     -20143.674      46.994659      46.918718      139.6146     
     40000  -20253.583      113.76736     -20139.815      46.986708      46.91034       139.6728     
     40100  -20246.25       115.72892     -20130.521      46.97758       46.899561      139.731      
     40200  -20238.807      117.26411     -20121.543      46.969333      46.889674      139.78919    
     40300  -20229.764      116.44578     -20113.318      46.960986      46.879703      139.84739    
     40400  -20225.241      120.15426     -20105.087      46.951929      46.868956      139.90559    
     40500  -20215.678      118.37774     -20097.3        46.944261      46.86007       139.96379    
     40600  -20211.032      120.00861     -20091.023      46.935225      46.849823      140.02198    
     40700  -20206.391      118.40494     -20087.986      46.926899      46.840811      140.08018    
     40800  -20199.173      116.06736     -20083.106      46.918704      46.831428      140.13838    
     40900  -20190.939      116.1689      -20074.77       46.910657      46.82127       140.19657    
     41000  -20184.87       119.97994     -20064.89       46.903122      46.811489      140.25477    
     41100  -20177.817      119.82471     -20057.992      46.894584      46.801124      140.31297    
     41200  -20170.875      114.05921     -20056.815      46.885544      46.791791      140.37116    
     41300  -20165.738      115.54843     -20050.19       46.875707      46.78279       140.42936    
     41400  -20156.897      116.58313     -20040.313      46.8656        46.773658      140.48756    
     41500  -20151.862      120.01749     -20031.844      46.855237      46.763806      140.54575    
     41600  -20144.373      117.84367     -20026.529      46.845265      46.75404       140.60395    
     41700  -20136.432      113.66891     -20022.763      46.835537      46.744336      140.66215    
     41800  -20132.214      116.64956     -20015.565      46.825712      46.734014      140.72035    
     41900  -20121.8        114.23702     -20007.563      46.816614      46.724589      140.77854    
     42000  -20118.624      119.23861     -19999.386      46.807369      46.714132      140.83674    
     42100  -20111.003      119.37105     -19991.632      46.798409      46.703747      140.89494    
     42200  -20102.845      116.82242     -19986.023      46.789807      46.693818      140.95313    
     42300  -20096.704      114.65003     -19982.054      46.780007      46.682591      141.01133    
     42400  -20091.298      114.67866     -19976.619      46.771288      46.672977      141.06953    
     42500  -20083.662      117.54265     -19966.119      46.761642      46.662591      141.12772    
     42600  -20074.306      117.6789      -19956.627      46.751483      46.652037      141.18592    
     42700  -20068.201      117.68068     -19950.521      46.742267      46.642509      141.24412    
     42800  -20061.814      116.19362     -19945.62       46.731475      46.631441      141.30232    
     42900  -20056.49       114.4057      -19942.084      46.722002      46.621311      141.36051    
     43000  -20051.469      114.09329     -19937.376      46.712683      46.610365      141.41871    
     43100  -20041.5        115.48345     -19926.016      46.703378      46.598392      141.47691    
     43200  -20037.474      120.5232      -19916.951      46.695289      46.587728      141.5351     
     43300  -20028.38       117.41747     -19910.962      46.685067      46.575848      141.5933     
     43400  -20023.103      116.70627     -19906.397      46.675019      46.565587      141.6515     
     43500  -20016.28       115.15135     -19901.129      46.66468       46.555767      141.7097     
     43600  -20008.577      117.33189     -19891.245      46.653362      46.545121      141.76789    
     43700  -19997.481      116.3727      -19881.108      46.643453      46.535689      141.82609    
     43800  -19995.654      120.40869     -19875.245      46.632841      46.525101      141.88429    
     43900  -19988.964      117.53879     -19871.425      46.622704      46.514082      141.94248    
     44000  -19979.5        114.03556     -19865.465      46.613759      46.503374      142.00068    
     44100  -19975.108      117.23918     -19857.869      46.604075      46.491594      142.05888    
     44200  -19967.275      117.45596     -19849.819      46.594904      46.480447      142.11707    
     44300  -19962.138      119.19382     -19842.945      46.585225      46.468777      142.17527    
     44400  -19951.828      115.89888     -19835.929      46.575053      46.457124      142.23347    
     44500  -19944.632      117.90383     -19826.728      46.565095      46.446358      142.29167    
     44600  -19941.35       121.94382     -19819.406      46.554501      46.43536       142.34986    
     44700  -19933.15       117.09553     -19816.055      46.544324      46.424975      142.40806    
     44800  -19929.578      118.08929     -19811.489      46.534168      46.414316      142.46626    
     44900  -19921.748      117.5946      -19804.154      46.523409      46.403082      142.52445    
     45000  -19913.788      120.11618     -19793.672      46.513476      46.39263       142.58265    
     45100  -19903.367      119.02155     -19784.345      46.502987      46.381387      142.64085    
     45200  -19897.311      118.73856     -19778.572      46.492649      46.370051      142.69904    
     45300  -19892.992      118.65953     -19774.333      46.482643      46.359206      142.75724    
     45400  -19887.489      118.3481      -19769.14       46.471727      46.347946      142.81544    
     45500  -19877.957      116.07774     -19761.879      46.461488      46.336831      142.87364    
     45600  -19870.862      117.90798     -19752.954      46.451933      46.325902      142.93183    
     45700  -19861.131      120.13389     -19740.997      46.441131      46.313634      142.99003    
     45800  -19855.555      122.01414     -19733.541      46.431613      46.30302       143.04823    
     45900  -19850.512      120.57932     -19729.933      46.421594      46.291759      143.10642    
     46000  -19842.112      116.36116     -19725.751      46.410944      46.27974       143.16462    
     46100  -19838.2        116.98351     -19721.216      46.402047      46.269321      143.22282    
     46200  -19830.778      115.65069     -19715.127      46.391815      46.257469      143.28101    
     46300  -19821.305      115.81741     -19705.487      46.382498      46.246156      143.33921    
     46400  -19812.613      117.78759     -19694.826      46.373312      46.235388      143.39741    
     46500  -19808.702      119.04404     -19689.658      46.362504      46.223505      143.4556     
     46600  -19804.696      119.38871     -19685.307      46.352816      46.212901      143.5138     
     46700  -19797.538      118.23594     -19679.302      46.34285       46.201974      143.572      
     46800  -19787.668      116.28952     -19671.378      46.331978      46.190005      143.6302     
     46900  -19780.684      119.5061      -19661.178      46.322423      46.179856      143.68839    
     47000  -19771.699      121.31267     -19650.386      46.311693      46.168326      143.74659    
     47100  -19765.579      118.09887     -19647.481      46.302047      46.1571        143.80479    
     47200  -19761.275      117.83608     -19643.439      46.292546      46.145353      143.86298    
     47300  -19755.169      116.84262     -19638.326      46.282271      46.133014      143.92118    
     47400  -19747.196      115.12327     -19632.073      46.273112      46.122445      143.97938    
     47500  -19738.386      115.12291     -19623.263      46.262637      46.110802      144.03758    
     47600  -19731.143      118.25184     -19612.891      46.252423      46.099698      144.09577    
     47700  -19722.849      117.27785     -19605.571      46.242648      46.089454      144.15397    
     47800  -19717.652      116.1294      -19601.523      46.23146       46.078138      144.21217    
     47900  -19711.487      115.15548     -19596.332      46.221883      46.067888      144.27036    
     48000  -19703.911      115.3001      -19588.611      46.211445      46.056633      144.32856    
     48100  -19698.185      117.96989     -19580.215      46.201603      46.045394      144.38676    
     48200  -19689.16       117.84876     -19571.312      46.193087      46.035042      144.44495    
     48300  -19682.853      119.24128     -19563.612      46.18298       46.022926      144.50315    
     48400  -19678.549      118.95549     -19559.593      46.17441       46.0123        144.56135    
     48500  -19669.523      113.93642     -19555.586      46.165283      46.001453      144.61955    
     48600  -19664.769      116.63329     -19548.135      46.154852      45.990125      144.67774    
     48700  -19657.045      118.84284     -19538.202      46.145984      45.981512      144.73594    
     48800  -19648.347      120.05996     -19528.287      46.135403      45.971443      144.79414    
     48900  -19639.307      120.22742     -19519.079      46.125264      45.961556      144.85233    
     49000  -19637.38       123.35088     -19514.03       46.116545      45.951933      144.91053    
     49100  -19628.507      116.86691     -19511.64       46.106243      45.939946      144.96873    
     49200  -19622.745      116.02299     -19506.722      46.09787       45.930066      145.02692    
     49300  -19616.354      116.66173     -19499.692      46.08833       45.919712      145.08512    
     49400  -19605.664      115.864       -19489.8        46.077951      45.909521      145.14332    
     49500  -19599.274      119.6114      -19479.663      46.068828      45.900627      145.20152    
     49600  -19591.912      118.83152     -19473.08       46.058428      45.890272      145.25971    
     49700  -19586.024      117.51258     -19468.511      46.049047      45.880258      145.31791    
     49800  -19578.49       116.15017     -19462.34       46.039745      45.870782      145.37611    
     49900  -19570.834      115.35603     -19455.478      46.029405      45.860336      145.4343     
     50000  -19566.368      118.91287     -19447.455      46.020396      45.851391      145.4925     
     50100  -19558.298      119.19184     -19439.107      46.010726      45.841097      145.5507     
     50200  -19549.656      117.75613     -19431.9        46.001455      45.83075       145.60889    
     50300  -19544.651      116.17061     -19428.481      45.993496      45.821287      145.66709    
     50400  -19536.906      114.09705     -19422.809      45.984042      45.810624      145.72529    
     50500  -19530.995      117.25497     -19413.74       45.975229      45.801222      145.78348    
     50600  -19521.743      118.57567     -19403.168      45.965926      45.791904      145.84168    
     50700  -19516.797      123.97612     -19392.821      45.956144      45.782015      145.89988    
     50800  -19507.257      119.73807     -19387.519      45.947855      45.773318      145.95808    
     50900  -19504.899      119.49799     -19385.401      45.938906      45.763437      146.01627    
     51000  -19495.793      116.1853      -19379.608      45.930898      45.75393       146.07447    
     51100  -19489.334      117.20536     -19372.129      45.923317      45.744718      146.13267    
     51200  -19480.597      117.59348     -19363.004      45.914471      45.734896      146.19086    
     51300  -19472.818      118.67956     -19354.138      45.906327      45.726313      146.24906    
     51400  -19466.995      117.62458     -19349.37       45.897497      45.71724       146.30726    
     51500  -19461.81       115.91399     -19345.896      45.888338      45.708213      146.36545    
     51600  -19456.181      117.86371     -19338.317      45.880267      45.70035       146.42365    
     51700  -19446.571      117.7244      -19328.847      45.870746      45.691515      146.48185    
     51800  -19437.004      117.78119     -19319.223      45.861828      45.682802      146.54005    
     51900  -19427.858      118.35502     -19309.503      45.853418      45.674008      146.59824    
     52000  -19419.46       118.39113     -19301.069      45.84493       45.664431      146.65644    
     52100  -19417.572      119.29266     -19298.28       45.837099      45.655604      146.71464    
     52200  -19413.742      119.58029     -19294.162      45.829167      45.646146      146.77283    
     52300  -19404.32       116.16174     -19288.159      45.821869      45.637385      146.83103    
     52400  -19397.1        115.92938     -19281.171      45.814358      45.628477      146.88923    
     52500  -19389.709      117.91518     -19271.794      45.806763      45.619511      146.94743    
     52600  -19379.926      119.04776     -19260.878      45.799681      45.61173       147.00562    
     52700  -19374.088      119.52183     -19254.566      45.790864      45.60384       147.06382    
     52800  -19369.709      118.56278     -19251.146      45.78238       45.596289      147.12202    
     52900  -19361.992      117.41938     -19244.572      45.774566      45.588766      147.18021    
     53000  -19353.506      115.83204     -19237.674      45.76621       45.579694      147.23841    
     53100  -19347.778      118.28136     -19229.496      45.759144      45.571748      147.29661    
     53200  -19338.145      119.00731     -19219.137      45.751594      45.563317      147.3548     
     53300  -19329.517      118.14307     -19211.374      45.743406      45.554718      147.413      
     53400  -19326.534      117.46669     -19209.067      45.736795      45.547936      147.4712     
     53500  -19319.275      116.07378     -19203.202      45.728971      45.540186      147.5294     
     53600  -19310.92       115.8245      -19195.095      45.721172      45.532069      147.58759    
     53700  -19303.493      117.72625     -19185.767      45.714337      45.524714      147.64579    
     53800  -19297.11       120.481       -19176.629      45.70658       45.516573      147.70399    
     53900  -19288.709      119.40982     -19169.299      45.699796      45.509115      147.76218    
     54000  -19281.169      115.14425     -19166.025      45.69271       45.501282      147.82038    
     54100  -19274.121      114.00952     -19160.112      45.685378      45.493382      147.87858    
     54200  -19268.448      116.67188     -19151.776      45.678217      45.486416      147.93677    
     54300  -19261.469      119.32768     -19142.141      45.670064      45.478709      147.99497    
     54400  -19252.543      119.79795     -19132.745      45.662894      45.471465      148.05317    
     54500  -19246.025      118.85958     -19127.165      45.655972      45.464155      148.11137    
     54600  -19241.35       117.54974     -19123.8        45.649278      45.456913      148.16956    
     54700  -19235.593      118.65713     -19116.936      45.642848      45.449587      148.22776    
     54800  -19225.83       116.72753     -19109.103      45.636323      45.441918      148.28596    
     54900  -19216.822      117.4476      -19099.374      45.630258      45.434992      148.34415    
     55000  -19208.687      119.66506     -19089.022      45.623515      45.427997      148.40235    
     55100  -19201.651      118.12497     -19083.526      45.616233      45.421003      148.46055    
     55200  -19194.944      114.96865     -19079.975      45.608896      45.413924      148.51874    
     55300  -19190.608      117.4962      -19073.112      45.602127      45.406937      148.57694    
     55400  -19184.137      118.29683     -19065.841      45.595505      45.399815      148.63514    
     55500  -19175.338      116.59926     -19058.739      45.588931      45.392748      148.69333    
     55600  -19169.252      117.25884     -19051.993      45.582584      45.386163      148.75153    
     55700  -19160.45       115.69883     -19044.751      45.575773      45.379799      148.80973    
     55800  -19154.652      118.03044     -19036.621      45.568962      45.373604      148.86793    
     55900  -19146.221      119.28862     -19026.933      45.562101      45.367235      148.92612    
     56000  -19139.688      120.86988     -19018.818      45.556066      45.360823      148.98432    
     56100  -19133.346      117.75209     -19015.594      45.549907      45.353737      149.04252    
     56200  -19125.693      116.22611     -19009.467      45.544347      45.346194      149.10071    
     56300  -19116.755      115.68664     -19001.068      45.538871      45.339142      149.15891    
     56400  -19109.407      117.06687     -18992.34       45.532701      45.331755      149.21711    
     56500  -19098.198      115.72203     -18982.476      45.526822      45.325271      149.27531    
     56600  -19092.132      117.72639     -18974.406      45.52039       45.318708      149.3335     
     56700  -19090.027      119.2392      -18970.787      45.51391       45.312503      149.3917     
     56800  -19081.321      115.77311     -18965.548      45.508125      45.306464      149.4499     
     56900  -19076.015      117.51824     -18958.497      45.502099      45.29979       149.50809    
     57000  -19066.492      116.48158     -18950.01       45.496997      45.29376       149.56629    
     57100  -19059.052      119.60306     -18939.449      45.491204      45.28738       149.62449    
     57200  -19049.425      119.45384     -18929.971      45.4851        45.280785      149.68268    
     57300  -19043.749      117.42144     -18926.328      45.479735      45.275072      149.74088    
     57400  -19036.452      115.31945     -18921.132      45.473104      45.268288      149.79908    
     57500  -19031.127      117.26763     -18913.86       45.466974      45.262175      149.85728    
     57600  -19020.496      114.37867     -18906.118      45.46191       45.256593      149.91547    
     57700  -19014.529      116.94641     -18897.583      45.454878      45.24943       149.97367    
     57800  -19007.323      118.94527     -18888.378      45.450037      45.244042      150.03187    
     57900  -19000.677      119.14281     -18881.534      45.444443      45.238303      150.09006    
     58000  -18994.403      116.6017      -18877.801      45.437419      45.231245      150.14826    
     58100  -18987.097      116.18134     -18870.916      45.433817      45.226476      150.20646    
     58200  -18980.298      117.14008     -18863.158      45.42768       45.219226      150.26465    
     58300  -18973.159      118.70877     -18854.45       45.421991      45.21275       150.32285    
     58400  -18963.074      119.16863     -18843.905      45.417404      45.207357      150.38105    
     58500  -18953.89       117.21295     -18836.677      45.41007       45.200236      150.43924    
     58600  -18951.683      119.14165     -18832.541      45.406018      45.195426      150.49744    
     58700  -18941.906      115.32592     -18826.58       45.400095      45.189054      150.55564    
     58800  -18937.006      118.82925     -18818.177      45.394455      45.182839      150.61384    
     58900  -18928.554      120.06763     -18808.486      45.390497      45.178003      150.67203    
     59000  -18920.986      121.81309     -18799.173      45.383357      45.171046      150.73023    
     59100  -18911.764      119.28587     -18792.479      45.378805      45.166245      150.78843    
     59200  -18904.554      115.8348      -18788.719      45.373439      45.160848      150.84662    
     59300  -18898.693      116.47401     -18782.219      45.366711      45.154663      150.90482    
     59400  -18892.005      117.99326     -18774.011      45.36244       45.150078      150.96302    
     59500  -18883.518      117.80722     -18765.711      45.355915      45.143673      151.02121    
     59600  -18875.537      118.41245     -18757.124      45.350759      45.138666      151.07941    
     59700  -18867.689      118.73785     -18748.951      45.345579      45.133838      151.13761    
     59800  -18859.123      115.38228     -18743.74       45.338436      45.127781      151.19581    
     59900  -18854          116.62905     -18737.371      45.333469      45.123352      151.254      
     60000  -18844.583      114.17218     -18730.411      45.327402      45.117825      151.3122     
     60100  -18837.258      115.31712     -18721.94       45.321065      45.111763      151.3704     
     60200  -18829.32       118.86637     -18710.453      45.316932      45.106922      151.42859    
     60300  -18818.234      117.25838     -18700.976      45.311075      45.100459      151.48679    
     60400  -18815.146      119.45496     -18695.691      45.306676      45.095416      151.54499    
     60500  -18806.763      116.57506     -18690.188      45.301856      45.089991      151.60318    
     60600  -18798.772      116.13518     -18682.637      45.296341      45.083814      151.66138    
     60700  -18792.551      118.36477     -18674.186      45.2922        45.078819      151.71958    
     60800  -18784.93       117.11209     -18667.818      45.286071      45.072786      151.77778    
     60900  -18775.902      112.96724     -18662.935      45.280782      45.068014      151.83597    
     61000  -18771.937      116.74054     -18655.197      45.27497       45.063185      151.89417    
     61100  -18761.329      118.36632     -18642.963      45.268406      45.057866      151.95237    
     61200  -18752.812      120.86357     -18631.948      45.263915      45.053756      152.01056    
     61300  -18743.823      118.03938     -18625.784      45.257501      45.048167      152.06876    
     61400  -18738.111      118.08011     -18620.03       45.252531      45.043305      152.12696    
     61500  -18731.033      117.92698     -18613.106      45.246978      45.037825      152.18516    
     61600  -18722.531      116.90814     -18605.623      45.241342      45.03248       152.24335    
     61700  -18714.942      115.99746     -18598.945      45.236633      45.027578      152.30155    
     61800  -18710.091      115.03385     -18595.057      45.230998      45.021773      152.35975    
     61900  -18701.239      115.51726     -18585.722      45.225981      45.016645      152.41794    
     62000  -18691.638      117.81767     -18573.82       45.220493      45.011924      152.47614    
     62100  -18681.266      117.00592     -18564.26       45.214073      45.006728      152.53434    
     62200  -18672.236      115.89087     -18556.345      45.209464      45.002743      152.59253    
     62300  -18666.461      115.62358     -18550.838      45.20302       44.997435      152.65073    
     62400  -18659.979      115.61632     -18544.362      45.197442      44.992456      152.70893    
     62500  -18652.24       117.14534     -18535.094      45.192972      44.988219      152.76713    
     62600  -18644.101      118.23763     -18525.863      45.186426      44.982618      152.82532    
     62700  -18635.773      119.2305      -18516.543      45.181325      44.978615      152.88352    
     62800  -18628.659      118.93972     -18509.719      45.175417      44.973794      152.94172    
     62900  -18621.074      116.43255     -18504.641      45.169996      44.968833      152.99991    
     63000  -18611.964      116.00073     -18495.963      45.165454      44.963766      153.05811    
     63100  -18603.286      118.1607      -18485.125      45.159962      44.957538      153.11631    
     63200  -18594.798      122.28133     -18472.516      45.156361      44.952665      153.1745     
     63300  -18582.833      119.6658      -18463.167      45.150738      44.946583      153.2327     
     63400  -18577.549      118.10745     -18459.442      45.145676      44.941161      153.2909     
     63500  -18569.177      116.61737     -18452.559      45.140693      44.935914      153.3491     
     63600  -18563.885      117.97913     -18445.906      45.13457       44.929547      153.40729    
     63700  -18555.319      117.18678     -18438.132      45.130806      44.924557      153.46549    
     63800  -18547.156      117.1283      -18430.028      45.125381      44.918533      153.52369    
     63900  -18541.538      118.8799      -18422.658      45.12024       44.913413      153.58188    
     64000  -18528.527      112.60287     -18415.924      45.115282      44.908977      153.64008    
     64100  -18522.47       114.88105     -18407.589      45.108733      44.903282      153.69828    
     64200  -18511.773      117.12094     -18394.652      45.104023      44.899158      153.75647    
     64300  -18499.508      116.99798     -18382.51       45.097184      44.894086      153.81467    
     64400  -18493.365      119.01176     -18374.353      45.091451      44.89015       153.87287    
     64500  -18485.498      117.74672     -18367.751      45.085498      44.886127      153.93106    
     64600  -18476.809      116.5333      -18360.275      45.078959      44.881667      153.98926    
     64700  -18468.352      115.40006     -18352.952      45.073986      44.878199      154.04746    
     64800  -18461.35       116.17898     -18345.171      45.067357      44.87287       154.10566    
     64900  -18453.816      117.70371     -18336.112      45.062821      44.868659      154.16385    
     65000  -18444.029      116.43088     -18327.598      45.056946      44.863174      154.22205    
     65100  -18436.507      115.65631     -18320.851      45.051014      44.857548      154.28025    
     65200  -18428.233      116.50187     -18311.731      45.046636      44.852667      154.33844    
     65300  -18421.411      120.2454      -18301.166      45.040243      44.846125      154.39664    
     65400  -18406.125      117.33715     -18288.788      45.036329      44.841772      154.45484    
     65500  -18399.361      120.29048     -18279.07       45.029907      44.835905      154.51304    
     65600  -18390.052      116.51647     -18273.536      45.024226      44.830546      154.57123    
     65700  -18384.565      118.64115     -18265.924      45.019792      44.825828      154.62943    
     65800  -18376.341      119.169       -18257.172      45.012494      44.818982      154.68763    
     65900  -18365.675      118.55902     -18247.116      45.008245      44.814857      154.74582    
     66000  -18356.744      117.98091     -18238.763      45.001624      44.809207      154.80402    
     66100  -18350.802      118.97585     -18231.826      44.995903      44.804701      154.86222    
     66200  -18338.968      116.00835     -18222.96       44.990659      44.800716      154.92041    
     66300  -18328.027      115.57514     -18212.452      44.983728      44.795377      154.97861    
     66400  -18317.992      119.81854     -18198.174      44.979664      44.79187       155.03681    
     66500  -18307.478      120.21601     -18187.262      44.97226       44.78644       155.09501    
     66600  -18300.037      118.90046     -18181.136      44.966188      44.782609      155.1532     
     66700  -18293.485      120.93386     -18172.552      44.95942       44.778293      155.2114     
     66800  -18284.402      119.57084     -18164.831      44.952705      44.773477      155.2696     
     66900  -18273.944      117.49758     -18156.447      44.947748      44.769486      155.32779    
     67000  -18264.687      117.20678     -18147.48       44.940761      44.76336       155.38599    
     67100  -18256.025      118.84461     -18137.181      44.936015      44.758519      155.44419    
     67200  -18245.144      114.20693     -18130.937      44.930448      44.75258       155.50238    
     67300  -18237.58       115.03117     -18122.549      44.924726      44.746794      155.56058    
     67400  -18227.274      117.84489     -18109.429      44.919922      44.741822      155.61878    
     67500  -18216.684      119.92932     -18096.755      44.913771      44.735422      155.67697    
     67600  -18206.375      119.57549     -18086.8        44.909459      44.730241      155.73517    
     67700  -18199.967      118.28434     -18081.683      44.903485      44.724422      155.79337    
     67800  -18188.076      116.63112     -18071.445      44.897496      44.719345      155.85157    
     67900  -18180.664      119.08892     -18061.575      44.891827      44.714644      155.90976    
     68000  -18169.278      116.44366     -18052.835      44.885168      44.709265      155.96796    
     68100  -18161.119      117.53113     -18043.588      44.879039      44.704319      156.02616    
     68200  -18151.747      117.20069     -18034.546      44.873045      44.699174      156.08435    
     68300  -18139.915      113.09028     -18026.825      44.866712      44.69341       156.14255    
     68400  -18130.807      115.58168     -18015.225      44.861023      44.688245      156.20075    
     68500  -18119.805      118.10892     -18001.696      44.855243      44.68337       156.25895    
     68600  -18109.209      120.47439     -17988.735      44.848607      44.678457      156.31714    
     68700  -18098.144      119.97537     -17978.169      44.842097      44.673883      156.37534    
     68800  -18087.937      118.97891     -17968.958      44.835336      44.669132      156.43354    
     68900  -18076.474      115.58923     -17960.885      44.829527      44.664131      156.49173    
     69000  -18068.144      116.80972     -17951.335      44.823404      44.658064      156.54993    
     69100  -18059.548      118.45038     -17941.098      44.818494      44.652367      156.60813    
     69200  -18048.623      117.78807     -17930.835      44.812947      44.64629       156.66632    
     69300  -18036.84       116.24546     -17920.594      44.80701       44.64019       156.72452    
     69400  -18027.315      119.12521     -17908.19       44.801572      44.634748      156.78272    
     69500  -18017.377      119.72256     -17897.654      44.79524       44.628703      156.84091    
     69600  -18005.528      117.63474     -17887.894      44.789522      44.623065      156.89911    
     69700  -17992.95       115.95033     -17877          44.783508      44.616953      156.95731    
     69800  -17985.791      119.21784     -17866.573      44.777827      44.61117       157.01551    
     69900  -17974.195      118.51513     -17855.68       44.77203       44.605867      157.0737     
     70000  -17963.359      118.24951     -17845.11       44.765325      44.600718      157.1319     
     70100  -17951.65       118.06324     -17833.586      44.758805      44.596231      157.1901     
     70200  -17941.926      118.52855     -17823.398      44.751771      44.591526      157.24829    
     70300  -17933.1        119.72968     -17813.371      44.7448        44.586649      157.30649    
     70400  -17922.544      119.73996     -17802.804      44.738698      44.581826      157.36469    
     70500  -17910.739      118.66622     -17792.072      44.731941      44.575888      157.42289    
     70600  -17899.763      119.65615     -17780.107      44.726182      44.570357      157.48108    
     70700  -17890.839      121.62718     -17769.212      44.71999       44.564515      157.53928    
     70800  -17876.1        117.9194      -17758.181      44.714252      44.558861      157.59748    
     70900  -17867.188      119.59232     -17747.595      44.708249      44.552943      157.65567    
     71000  -17854.736      118.0817      -17736.654      44.702153      44.54703       157.71387    
     71100  -17844.175      117.76041     -17726.415      44.696342      44.541078      157.77207    
     71200  -17832.514      118.49297     -17714.021      44.689543      44.53412       157.83026    
     71300  -17821.576      119.18147     -17702.395      44.684208      44.528143      157.88846    
     71400  -17809.551      119.20047     -17690.351      44.677754      44.521532      157.94666    
     71500  -17799.581      120.19378     -17679.387      44.671831      44.515484      158.00486    
     71600  -17790.073      121.84654     -17668.227      44.665786      44.509434      158.06305    
     71700  -17775.611      118.91723     -17656.693      44.65977       44.503226      158.12125    
     71800  -17765.942      119.19986     -17646.742      44.653882      44.497235      158.17945    
     71900  -17755.393      120.84284     -17634.55       44.647418      44.491082      158.23764    
     72000  -17743.946      121.51122     -17622.435      44.641243      44.485358      158.29584    
     72100  -17732.343      121.20551     -17611.138      44.634219      44.479364      158.35404    
     72200  -17719.523      119.9368      -17599.586      44.627849      44.473729      158.41223    
     72300  -17706.135      119.26654     -17586.869      44.62155       44.467862      158.47043    
     72400  -17695.596      119.35441     -17576.242      44.615105      44.461552      158.52863    
     72500  -17685.061      120.98812     -17564.073      44.608811      44.455727      158.58683    
     72600  -17673.086      121.61043     -17551.475      44.602068      44.449434      158.64502    
     72700  -17662.087      123.45601     -17538.631      44.595812      44.443565      158.70322    
     72800  -17648.162      122.50105     -17525.661      44.589047      44.437314      158.76142    
     72900  -17634.77       121.62653     -17513.143      44.582616      44.43142       158.81961    
     73000  -17625.14       124.41862     -17500.721      44.576187      44.425223      158.87781    
     73100  -17611.278      122.3159      -17488.962      44.56984       44.418933      158.93601    
     73200  -17601.007      123.19117     -17477.815      44.563576      44.412659      158.9942     
[...]
    181600  -21639.558      117.49918     -21522.058      37.773906      38.985545      222.07975    
    181700  -21638.249      117.92604     -21520.323      37.754471      38.983914      222.13795    
    181800  -21640.894      119.50727     -21521.387      37.736012      38.982483      222.19615    
    181900  -21641.871      116.65926     -21525.212      37.719127      38.981134      222.25434    
    182000  -21641.79       114.34522     -21527.445      37.700907      38.977969      222.31254    
    182100  -21641.678      115.64024     -21526.038      37.685131      38.977106      222.37074    
    182200  -21641.14       116.908       -21524.232      37.667939      38.973074      222.42893    
    182300  -21639.376      117.50813     -21521.868      37.652431      38.972072      222.48713    
    182400  -21637.826      117.50469     -21520.321      37.635731      38.970249      222.54533    
    182500  -21640.516      118.9155      -21521.6        37.618801      38.969329      222.60352    
    182600  -21642.52       116.56127     -21525.959      37.602244      38.967967      222.66172    
    182700  -21641.284      115.26313     -21526.021      37.58423       38.965325      222.71992    
    182800  -21639.5        115.85581     -21523.644      37.567574      38.964779      222.77812    
    182900  -21640.153      117.72235     -21522.43       37.549828      38.962946      222.83631    
    183000  -21640.941      118.02717     -21522.914      37.533231      38.962493      222.89451    
    183100  -21640.602      116.66655     -21523.935      37.515668      38.960659      222.95271    
    183200  -21643.251      115.37683     -21527.874      37.498225      38.959722      223.0109     
    183300  -21643.347      113.615       -21529.732      37.481517      38.959318      223.0691     
    183400  -21641.361      115.39363     -21525.967      37.464576      38.958062      223.1273     
    183500  -21640.997      117.49114     -21523.506      37.449071      38.958306      223.1855     
    183600  -21641.241      119.20367     -21522.037      37.431987      38.956934      223.24369    
    183700  -21638.71       117.71741     -21520.993      37.416495      38.956333      223.30189    
    183800  -21639.686      117.98804     -21521.698      37.400624      38.955263      223.36009    
    183900  -21642.495      117.23561     -21525.259      37.383841      38.954069      223.41828    
    184000  -21640.412      114.37108     -21526.041      37.367869      38.953175      223.47648    
    184100  -21638.524      115.87439     -21522.65       37.351272      38.952053      223.53468    
    184200  -21639.394      118.96394     -21520.43       37.335518      38.952001      223.59287    
    184300  -21640.832      119.61797     -21521.214      37.319333      38.950781      223.65107    
    184400  -21639.059      116.31385     -21522.746      37.304315      38.950763      223.70927    
    184500  -21641.767      117.3745      -21524.393      37.288634      38.950345      223.76747    
    184600  -21640.227      113.94348     -21526.283      37.271231      38.949179      223.82566    
    184700  -21641.181      114.4486      -21526.732      37.254835      38.948265      223.88386    
    184800  -21642.739      120.003       -21522.736      37.237626      38.946401      223.94206    
    184900  -21639.219      118.32018     -21520.899      37.221531      38.945266      224.00025    
    185000  -21638.561      117.01528     -21521.546      37.204189      38.942736      224.05845    
    185100  -21640.845      116.15638     -21524.689      37.188304      38.941227      224.11665    
    185200  -21640.168      112.61265     -21527.555      37.172883      38.939783      224.17484    
    185300  -21640.537      114.98858     -21525.549      37.156862      38.938196      224.23304    
    185400  -21641.576      118.17147     -21523.405      37.142098      38.937623      224.29124    
    185500  -21640.761      117.97845     -21522.783      37.126213      38.936059      224.34944    
    185600  -21639.067      117.46598     -21521.602      37.111602      38.935233      224.40763    
    185700  -21641.384      120.86288     -21520.522      37.096076      38.933444      224.46583    
    185800  -21637.959      116.68741     -21521.272      37.080893      38.931883      224.52403    
    185900  -21641.703      116.82562     -21524.877      37.066799      38.930526      224.58222    
    186000  -21640.767      115.01608     -21525.751      37.052712      38.92942       224.64042    
    186100  -21642.063      119.57658     -21522.487      37.039848      38.928202      224.69862    
    186200  -21639.625      118.74482     -21520.88       37.026546      38.926429      224.75681    
    186300  -21640.178      118.76629     -21521.412      37.013848      38.92522       224.81501    
    186400  -21640.252      117.49501     -21522.757      37.001673      38.924464      224.87321    
    186500  -21640.538      115.84601     -21524.692      36.98897       38.923602      224.9314     
    186600  -21641.308      112.88288     -21528.425      36.976235      38.922451      224.9896     
    186700  -21641.952      113.61033     -21528.342      36.962623      38.921479      225.0478     
    186800  -21638.992      115.51682     -21523.475      36.94909       38.920434      225.106      
    186900  -21638.397      116.43418     -21521.963      36.935892      38.920148      225.16419    
    187000  -21639.978      118.73898     -21521.239      36.922949      38.91952       225.22239    
    187100  -21640.822      118.33206     -21522.49       36.909921      38.91928       225.28059    
    187200  -21640.312      115.02256     -21525.289      36.896111      38.918401      225.33878    
    187300  -21640.875      114.55662     -21526.318      36.883211      38.917409      225.39698    
    187400  -21636.806      114.67755     -21522.128      36.869958      38.916058      225.45518    
    187500  -21640.754      121.122       -21519.632      36.855958      38.913952      225.51337    
    187600  -21638.513      117.44894     -21521.064      36.842899      38.91296       225.57157    
    187700  -21642.496      118.31829     -21524.177      36.829011      38.910813      225.62977    
    187800  -21641.982      116.91045     -21525.072      36.816949      38.910738      225.68797    
    187900  -21642.076      117.72013     -21524.356      36.80331       38.910156      225.74616    
    188000  -21640.655      117.16226     -21523.493      36.790626      38.910264      225.80436    
    188100  -21638.935      116.17371     -21522.761      36.777473      38.909786      225.86256    
    188200  -21640.474      118.6112      -21521.862      36.763638      38.90907       225.92075    
    188300  -21638          116.85335     -21521.147      36.750775      38.909534      225.97895    
    188400  -21639.555      119.72041     -21519.834      36.736562      38.907705      226.03715    
    188500  -21638.975      118.68646     -21520.288      36.724218      38.907269      226.09535    
    188600  -21638.408      114.91545     -21523.493      36.710287      38.905782      226.15354    
    188700  -21643.233      118.12976     -21525.104      36.698053      38.905604      226.21174    
    188800  -21642.532      118.5945      -21523.938      36.685594      38.905129      226.26994    
    188900  -21636.965      118.11865     -21518.846      36.67296       38.903418      226.32813    
    189000  -21636.975      118.60882     -21518.366      36.661307      38.903067      226.38633    
    189100  -21637.27       116.62984     -21520.64       36.648403      38.900647      226.44453    
    189200  -21638.447      115.84437     -21522.603      36.636727      38.898345      226.50272    
    189300  -21641.027      117.87139     -21523.156      36.624413      38.895345      226.56092    
    189400  -21641.296      118.1531      -21523.143      36.613376      38.893415      226.61912    
    189500  -21639.798      117.2349      -21522.563      36.602191      38.890653      226.67732    
    189600  -21640.244      117.78765     -21522.456      36.591364      38.888071      226.73551    
    189700  -21639.731      117.14904     -21522.582      36.580775      38.88592       226.79371    
    189800  -21638.959      117.10505     -21521.854      36.569735      38.883425      226.85191    
    189900  -21636.976      117.28822     -21519.688      36.559929      38.882189      226.9101     
    190000  -21640.947      122.0908      -21518.857      36.54896       38.879776      226.9683     
    190100  -21638.013      116.11803     -21521.895      36.53874       38.878049      227.0265     
    190200  -21641.602      117.12626     -21524.475      36.529061      38.877029      227.08469    
    190300  -21640.062      116.00952     -21524.052      36.519641      38.875782      227.14289    
    190400  -21638.664      116.62196     -21522.042      36.509309      38.874799      227.20109    
    190500  -21635.718      118.50784     -21517.211      36.498667      38.873912      227.25929    
    190600  -21632.803      116.07595     -21516.727      36.487881      38.872432      227.31748    
    190700  -21637          117.79155     -21519.208      36.476719      38.871336      227.37568    
    190800  -21640.225      118.38318     -21521.842      36.466416      38.870748      227.43388    
    190900  -21637.201      113.54619     -21523.655      36.455682      38.870445      227.49207    
    191000  -21641.281      117.49415     -21523.787      36.445341      38.87001       227.55027    
    191100  -21636.96       116.57206     -21520.388      36.434741      38.869461      227.60847    
    191200  -21637.466      119.76243     -21517.704      36.424377      38.868215      227.66666    
    191300  -21637.765      118.00621     -21519.759      36.413923      38.867404      227.72486    
    191400  -21638.978      116.83747     -21522.141      36.402493      38.865618      227.78306    
    191500  -21637.077      114.44254     -21522.635      36.391671      38.863776      227.84125    
    191600  -21639.262      116.1698      -21523.092      36.380721      38.86259       227.89945    
    191700  -21640.047      116.85587     -21523.191      36.369405      38.861135      227.95765    
    191800  -21640.57       118.24865     -21522.322      36.358766      38.860042      228.01585    
    191900  -21639.522      118.26738     -21521.254      36.348939      38.859035      228.07404    
    192000  -21640.624      119.36302     -21521.261      36.339094      38.857793      228.13224    
    192100  -21641.364      117.93717     -21523.427      36.329509      38.856779      228.19044    
    192200  -21640.998      114.90401     -21526.094      36.320864      38.854842      228.24863    
    192300  -21641.318      115.18446     -21526.133      36.313633      38.853263      228.30683    
    192400  -21638.826      117.83949     -21520.987      36.306512      38.851194      228.36503    
    192500  -21636.613      117.1111      -21519.502      36.300391      38.849968      228.42323    
    192600  -21639.768      118.35222     -21521.416      36.295192      38.84855       228.48142    
    192700  -21642.423      118.01829     -21524.405      36.290765      38.846836      228.53962    
    192800  -21641.882      116.98358     -21524.898      36.28696       38.846         228.59782    
    192900  -21640.517      116.88512     -21523.632      36.28225       38.844141      228.65601    
    193000  -21638.943      116.42894     -21522.514      36.278692      38.843633      228.71421    
    193100  -21638.87       116.57447     -21522.296      36.27433       38.841863      228.77241    
    193200  -21638.027      115.69267     -21522.334      36.270069      38.840824      228.8306     
    193300  -21638.169      115.94472     -21522.224      36.265722      38.84046       228.8888     
    193400  -21636.713      114.98441     -21521.728      36.261108      38.838839      228.947      
    193500  -21638.604      117.74864     -21520.856      36.25679       38.83787       229.0052     
    193600  -21638.472      117.64828     -21520.824      36.251199      38.83576       229.06339    
    193700  -21643.201      120.23932     -21522.962      36.245998      38.834247      229.12159    
    193800  -21640.923      115.43734     -21525.486      36.240172      38.832478      229.17979    
    193900  -21639.97       114.87207     -21525.098      36.234684      38.831069      229.23798    
    194000  -21637.084      117.05455     -21520.029      36.228387      38.829883      229.29618    
    194100  -21638.154      118.69608     -21519.458      36.221212      38.828074      229.35438    
    194200  -21639.691      117.8008      -21521.89       36.215171      38.827669      229.41257    
    194300  -21639.785      115.64866     -21524.136      36.208531      38.826283      229.47077    
    194400  -21639.491      115.28551     -21524.206      36.203564      38.826081      229.52897    
    194500  -21640.107      117.08201     -21523.025      36.198099      38.825083      229.58717    
    194600  -21639.337      117.06854     -21522.268      36.192553      38.82404       229.64536    
    194700  -21639.759      117.4731      -21522.286      36.187611      38.822641      229.70356    
    194800  -21638.595      116.11287     -21522.482      36.181753      38.820875      229.76176    
    194900  -21640.007      118.07435     -21521.933      36.176095      38.820245      229.81995    
    195000  -21638.971      117.68298     -21521.288      36.170151      38.818828      229.87815    
    195100  -21638.573      117.30449     -21521.268      36.163839      38.817586      229.93635    
    195200  -21639.588      116.58221     -21523.005      36.157014      38.816684      229.99454    
    195300  -21639.024      113.75717     -21525.267      36.149178      38.814559      230.05274    
    195400  -21642.073      117.69664     -21524.376      36.141852      38.811741      230.11094    
    195500  -21639.437      119.65034     -21519.787      36.134039      38.808886      230.16914    
    195600  -21637.657      118.16129     -21519.495      36.12568       38.806117      230.22733    
    195700  -21638.614      117.10832     -21521.505      36.117798      38.803457      230.28553    
    195800  -21639.06       115.68419     -21523.376      36.108899      38.800378      230.34373    
    195900  -21639.411      116.2894      -21523.122      36.09998       38.797917      230.40192    
    196000  -21640.027      117.59934     -21522.428      36.090808      38.795822      230.46012    
    196100  -21639.687      117.44024     -21522.247      36.080784      38.793522      230.51832    
    196200  -21639.411      117.16521     -21522.246      36.070835      38.79177       230.57651    
    196300  -21639.365      117.06569     -21522.299      36.061002      38.790059      230.63471    
    196400  -21638.039      116.38218     -21521.657      36.051598      38.788926      230.69291    
    196500  -21641.229      119.80524     -21521.424      36.040817      38.786692      230.7511     
    196600  -21638.722      116.10554     -21522.616      36.030557      38.785145      230.8093     
    196700  -21640.84       116.46042     -21524.38       36.019777      38.783288      230.8675     
    196800  -21643.445      118.2771      -21525.167      36.0094        38.782072      230.9257     
    196900  -21639.234      116.21583     -21523.018      35.999189      38.780615      230.98389    
    197000  -21639.842      120.3553      -21519.487      35.988494      38.777962      231.04209    
    197100  -21638.222      118.72061     -21519.502      35.978952      38.776796      231.10029    
    197200  -21640.472      117.64597     -21522.826      35.967959      38.773853      231.15848    
    197300  -21639.445      114.34899     -21525.096      35.957232      38.771759      231.21668    
    197400  -21641.557      117.34908     -21524.208      35.946767      38.76913       231.27488    
    197500  -21640.045      117.13671     -21522.909      35.936217      38.766966      231.33308    
    197600  -21638.013      117.162       -21520.851      35.926173      38.765786      231.39127    
    197700  -21636.497      117.65872     -21518.838      35.915376      38.763967      231.44947    
    197800  -21635.899      118.23003     -21517.669      35.906323      38.763002      231.50767    
    197900  -21637.189      115.87886     -21521.31       35.896955      38.761372      231.56586    
    198000  -21639.915      115.83991     -21524.075      35.886909      38.759522      231.62406    
    198100  -21639.347      114.91634     -21524.431      35.877058      38.757701      231.68226    
    198200  -21639.404      117.19763     -21522.206      35.867277      38.7556        231.74045    
    198300  -21639.851      121.1596      -21518.691      35.858767      38.754366      231.79865    
    198400  -21635.507      116.54576     -21518.961      35.848373      38.751512      231.85685    
    198500  -21641.309      116.65428     -21524.655      35.839073      38.749914      231.91505    
    198600  -21641.496      116.26094     -21525.235      35.829311      38.747486      231.97324    
    198700  -21639.382      116.06145     -21523.321      35.820435      38.746107      232.03144    
    198800  -21639.185      118.45169     -21520.733      35.812124      38.74463       232.08964    
    198900  -21638.012      118.00221     -21520.01       35.803371      38.74353       232.14783    
    199000  -21639.53       116.49304     -21523.037      35.795439      38.742816      232.20603    
    199100  -21641.252      114.92851     -21526.324      35.786931      38.740209      232.26423    
    199200  -21640.624      115.69518     -21524.929      35.77981       38.738508      232.32242    
    199300  -21640.568      118.76612     -21521.802      35.772018      38.735477      232.38062    
    199400  -21638.084      117.17686     -21520.907      35.764412      38.732968      232.43882    
    199500  -21639.354      117.82781     -21521.526      35.757411      38.729827      232.49702    
    199600  -21639.154      116.35436     -21522.799      35.749805      38.726418      232.55521    
    199700  -21641.534      115.79089     -21525.743      35.743547      38.723668      232.61341    
    199800  -21643.233      113.87237     -21529.36       35.737655      38.720238      232.67161    
    199900  -21641.48       114.33587     -21527.145      35.732964      38.71751       232.7298     
    200000  -21640.26       115.9913      -21524.269      35.727804      38.71513       232.788      
Loop time of 2594.47 on 8 procs for 200000 steps with 3024 atoms

Performance: 6.660 ns/day, 3.603 hours/ns, 77.087 timesteps/s
93.7% CPU use with 8 MPI tasks x 1 OpenMP threads

MPI task timing breakdown:
Section |  min time  |  avg time  |  max time  |%varavg| %total
---------------------------------------------------------------
Pair    | 708.43     | 1498.4     | 2131.4     |1495.2 | 57.75
Neigh   | 4.9343     | 11.632     | 17.939     | 142.3 |  0.45
Comm    | 372.13     | 786.79     | 1331.6     |1239.7 | 30.33
Output  | 0.93115    | 0.93802    | 0.98392    |   1.8 |  0.04
Modify  | 60.434     | 293.13     | 831.03     |1764.6 | 11.30
Other   |            | 3.572      |            |       |  0.14

Nlocal:            378 ave        1082 max           0 min
Histogram: 3 1 1 0 0 1 0 1 0 1
Nghost:        1812.12 ave        3800 max          74 min
Histogram: 2 0 1 0 2 0 1 1 0 1
Neighs:              0 ave           0 max           0 min
Histogram: 8 0 0 0 0 0 0 0 0 0

Total # of neighbors = 0
Ave neighs/atom = 0
Neighbor list builds = 1195
Dangerous builds = 0
Total wall time: 0:43:14
