LAMMPS (23 Jun 2022 - Update 1)
OMP_NUM_THREADS environment is not set. Defaulting to 1 thread. (../comm.cpp:98)
  using 1 OpenMP thread(s) per MPI task
Reading data file ...
  orthogonal box = (-25 -25 -0.606218) to (25 25 110.93785)
  1 by 2 by 4 MPI processor grid
  reading atoms ...
  2928 atoms
  reading velocities ...
  2928 velocities
  read_data CPU = 0.015 seconds
Reading airebo potential file CH.airebo with DATE: 2011-10-25
Reading airebo potential file CH.airebo with DATE: 2011-10-25
Reading airebo potential file CH.airebo with DATE: 2011-10-25
Neighbor list info ...
  update every 1 steps, delay 0 steps, check yes
  max neighbors/atom: 2000, page size: 100000
  master list distance cutoff = 13.2
  ghost atom cutoff = 13.2
  binsize = 6.6, bins = 8 8 17
  6 neighbor lists, perpetual/occasional/extra = 6 0 0
  (1) pair airebo, perpetual, skip from (5)
      attributes: full, newton on, ghost
      pair build: skip/ghost
      stencil: none
      bin: none
  (2) pair airebo, perpetual, skip from (5)
      attributes: full, newton on, ghost
      pair build: skip/ghost
      stencil: none
      bin: none
  (3) pair airebo, perpetual, skip from (5)
      attributes: full, newton on, ghost
      pair build: skip/ghost
      stencil: none
      bin: none
  (4) pair lj/cut, perpetual, skip from (6)
      attributes: half, newton on
      pair build: skip
      stencil: none
      bin: none
  (5) neighbor class addition, perpetual
      attributes: full, newton on, ghost
      pair build: full/bin/ghost
      stencil: full/ghost/bin/3d
      bin: standard
  (6) neighbor class addition, perpetual
      attributes: half, newton on
      pair build: half/bin/atomonly/newton
      stencil: half/bin/3d
      bin: standard
Setting up sd style minimization ...
  Unit style    : metal
  Current step  : 0
Per MPI rank memory allocation (min/avg/max) = 10.25 | 10.25 | 10.25 Mbytes
   Step          Temp          E_pair         E_mol          TotEng         Press     
         0   0             -20344.756      0             -20344.756      27546.587    
        16   0             -21241.397      0             -21241.397      313.77327    
Loop time of 0.17812 on 8 procs for 16 steps with 2928 atoms

95.7% CPU use with 8 MPI tasks x 1 OpenMP threads

Minimization stats:
  Stopping criterion = energy tolerance
  Energy initial, next-to-last, final = 
     -20344.7559264538  -21240.4212891911  -21241.3968525428
  Force two-norm initial, final = 721.12526 10.912003
  Force max component initial, final = 114.90068 1.6104143
  Final line search alpha, max atom move = 0.031085587 0.050060673
  Iterations, force evaluations = 16 28

MPI task timing breakdown:
Section |  min time  |  avg time  |  max time  |%varavg| %total
---------------------------------------------------------------
Pair    | 0.1423     | 0.15298    | 0.17571    |   3.3 | 85.89
Neigh   | 0          | 0          | 0          |   0.0 |  0.00
Comm    | 0.0014076  | 0.023895   | 0.034643   |   8.4 | 13.41
Output  | 0          | 0          | 0          |   0.0 |  0.00
Modify  | 0          | 0          | 0          |   0.0 |  0.00
Other   |            | 0.001242   |            |       |  0.70

Nlocal:            366 ave         378 max         354 min
Histogram: 4 0 0 0 0 0 0 0 0 4
Nghost:           1062 ave        1074 max        1050 min
Histogram: 4 0 0 0 0 0 0 0 0 4
Neighs:              0 ave           0 max           0 min
Histogram: 8 0 0 0 0 0 0 0 0 0

Total # of neighbors = 0
Ave neighs/atom = 0
Neighbor list builds = 0
Dangerous builds = 0
Setting up Verlet run ...
  Unit style    : metal
  Current step  : 16
  Time step     : 0.001
Per MPI rank memory allocation (min/avg/max) = 10.88 | 10.88 | 10.88 Mbytes
   Step          Temp          E_pair         E_mol          TotEng         Press          Volume    
        16   300           -21241.397      0             -21127.894      748.5249       278860.18    
Loop time of 2.44064e-05 on 8 procs for 0 steps with 2928 atoms

35.3% CPU use with 8 MPI tasks x 1 OpenMP threads

MPI task timing breakdown:
Section |  min time  |  avg time  |  max time  |%varavg| %total
---------------------------------------------------------------
Pair    | 0          | 0          | 0          |   0.0 |  0.00
Neigh   | 0          | 0          | 0          |   0.0 |  0.00
Comm    | 0          | 0          | 0          |   0.0 |  0.00
Output  | 0          | 0          | 0          |   0.0 |  0.00
Modify  | 0          | 0          | 0          |   0.0 |  0.00
Other   |            | 2.441e-05  |            |       |100.00

Nlocal:            366 ave         369 max         363 min
Histogram: 4 0 0 0 0 0 0 0 0 4
Nghost:           1062 ave        1065 max        1059 min
Histogram: 4 0 0 0 0 0 0 0 0 4
Neighs:              0 ave           0 max           0 min
Histogram: 8 0 0 0 0 0 0 0 0 0

Total # of neighbors = 0
Ave neighs/atom = 0
Neighbor list builds = 0
Dangerous builds = 0
Setting up Verlet run ...
  Unit style    : metal
  Current step  : 0
  Time step     : 0.001
Per MPI rank memory allocation (min/avg/max) = 13.65 | 13.65 | 13.65 Mbytes
   Step         PotEng         KinEng         TotEng           Lx             Ly             Lz      
         0  -21241.397      113.50333     -21127.894      50             50             111.54407    
       100  -21222.875      105.03697     -21117.838      50.006185      49.987662      111.59984    
       200  -21227.889      113.04011     -21114.849      50.005661      49.961745      111.65562    
       300  -21217.318      103.94547     -21113.372      50.029379      49.950026      111.71139    
       400  -21220.721      115.35419     -21105.366      50.035843      49.925423      111.76716    
       500  -21217.431      118.74568     -21098.686      50.058552      49.913836      111.82293    
       600  -21217.199      121.67417     -21095.525      50.066369      49.906126      111.8787     
       700  -21210.788      117.51083     -21093.277      50.065247      49.914952      111.93448    
       800  -21199.777      112.16093     -21087.616      50.06569       49.936952      111.99025    
       900  -21198.836      116.18162     -21082.654      50.039788      49.948931      112.04602    
      1000  -21207.233      124.81015     -21082.423      50.024009      49.96623       112.10179    
      1100  -21212.453      119.99457     -21092.459      50.001237      49.976317      112.15756    
      1200  -21202.976      106.90481     -21096.072      49.99075       49.990456      112.21334    
      1300  -21192.767      103.6712      -21089.096      49.975681      49.998092      112.26911    
      1400  -21191.115      110.77267     -21080.342      49.964252      50.008854      112.32488    
      1500  -21190.602      115.60531     -21074.996      49.959506      50.024823      112.38065    
      1600  -21186.568      112.22395     -21074.344      49.946972      50.028447      112.43642    
      1700  -21189.9        118.02626     -21071.874      49.943273      50.037794      112.4922     
      1800  -21192.085      117.17592     -21074.909      49.938116      50.043959      112.54797    
      1900  -21194.655      115.21973     -21079.435      49.932961      50.049813      112.60374    
      2000  -21193.328      111.25117     -21082.077      49.928493      50.052333      112.65951    
      2100  -21194.272      111.79174     -21082.481      49.924595      50.049845      112.71528    
      2200  -21190.823      112.04226     -21078.781      49.926339      50.053207      112.77106    
      2300  -21188.157      113.83403     -21074.323      49.922298      50.050811      112.82683    
      2400  -21187.086      114.0002      -21073.085      49.920663      50.054793      112.8826     
      2500  -21189.351      114.39171     -21074.96       49.918289      50.056662      112.93837    
      2600  -21187.089      110.35606     -21076.733      49.91644       50.057508      112.99414    
      2700  -21183.076      109.74254     -21073.334      49.915229      50.059125      113.04992    
      2800  -21189.088      118.28216     -21070.806      49.913045      50.05729       113.10569    
      2900  -21185.384      112.08134     -21073.302      49.913377      50.059503      113.16146    
      3000  -21184.28       112.77485     -21071.505      49.90988       50.055092      113.21723    
      3100  -21184.536      115.72208     -21068.814      49.911976      50.057718      113.27301    
      3200  -21184.558      114.32268     -21070.235      49.909312      50.055609      113.32878    
      3300  -21183.613      112.28407     -21071.329      49.908032      50.054861      113.38455    
      3400  -21182.077      112.85156     -21069.226      49.907991      50.055821      113.44032    
      3500  -21178.427      111.43551     -21066.991      49.905142      50.053191      113.49609    
      3600  -21175.914      112.96333     -21062.95       49.905248      50.056264      113.55187    
      3700  -21178.418      117.15481     -21061.263      49.902723      50.054637      113.60764    
      3800  -21172.71       110.23659     -21062.473      49.900757      50.054703      113.66341    
      3900  -21174.798      113.90701     -21060.891      49.898993      50.054401      113.71918    
      4000  -21177.815      114.77783     -21063.037      49.897333      50.054222      113.77495    
      4100  -21177.247      114.0335      -21063.214      49.895062      50.052681      113.83073    
      4200  -21175.814      114.80944     -21061.004      49.8937        50.052517      113.8865     
      4300  -21173.434      114.72133     -21058.713      49.892015      50.051156      113.94227    
      4400  -21167.257      112.5402      -21054.717      49.892385      50.048824      113.99804    
      4500  -21163.44       114.3189      -21049.121      49.893298      50.046375      114.05381    
      4600  -21161.545      113.78665     -21047.759      49.894046      50.045259      114.10959    
      4700  -21163.941      114.31267     -21049.629      49.893063      50.042154      114.16536    
      4800  -21166.338      114.8191      -21051.519      49.892311      50.040843      114.22113    
      4900  -21163.172      112.25163     -21050.921      49.890722      50.038592      114.2769     
      5000  -21161.929      113.49197     -21048.437      49.888874      50.037074      114.33267    
      5100  -21159.52       114.22123     -21045.299      49.888616      50.037423      114.38845    
      5200  -21155.057      116.22461     -21038.833      49.886678      50.033114      114.44422    
      5300  -21152.373      114.60441     -21037.768      49.888385      50.032915      114.49999    
      5400  -21154.855      114.89756     -21039.958      49.887095      50.029774      114.55576    
      5500  -21154.587      114.07284     -21040.514      49.886577      50.027337      114.61153    
      5600  -21152.505      112.1387      -21040.367      49.885999      50.027258      114.66731    
      5700  -21153.046      112.93743     -21040.108      49.882433      50.025469      114.72308    
      5800  -21150.981      110.98571     -21039.995      49.88051       50.026451      114.77885    
      5900  -21151.626      112.78944     -21038.837      49.877221      50.025721      114.83462    
      6000  -21151.236      115.68656     -21035.549      49.874308      50.025623      114.89039    
      6100  -21145.073      113.87192     -21031.201      49.871518      50.026324      114.94617    
      6200  -21143.615      116.21719     -21027.398      49.867807      50.024844      115.00194    
      6300  -21141.844      115.80434     -21026.04       49.865857      50.023608      115.05771    
      6400  -21142.997      115.64198     -21027.355      49.86438       50.020461      115.11348    
      6500  -21138.211      109.27198     -21028.939      49.863755      50.017761      115.16925    
      6600  -21139.998      114.12855     -21025.869      49.862401      50.014216      115.22503    
      6700  -21135.263      114.29328     -21020.969      49.862799      50.013741      115.2808     
      6800  -21131.573      113.39713     -21018.176      49.861563      50.009924      115.33657    
      6900  -21131.791      114.80361     -21016.988      49.862154      50.007458      115.39234    
      7000  -21129.253      112.29963     -21016.954      49.861205      50.00502       115.44811    
      7100  -21126.092      109.83538     -21016.257      49.857734      50.002066      115.50389    
      7200  -21126.031      111.85283     -21014.179      49.854878      50.002751      115.55966    
      7300  -21126.04       113.93821     -21012.101      49.850142      50.002244      115.61543    
      7400  -21122.763      111.72327     -21011.04       49.845851      50.001106      115.6712     
      7500  -21118.915      111.34681     -21007.568      49.842892      50.000351      115.72697    
      7600  -21117.773      113.53881     -21004.235      49.840362      49.997807      115.78275    
      7700  -21118.73       116.15681     -21002.573      49.837695      49.992929      115.83852    
      7800  -21115.405      112.24043     -21003.164      49.837003      49.991383      115.89429    
      7900  -21112.11       109.909       -21002.201      49.834664      49.988277      115.95006    
      8000  -21112.849      114.63081     -20998.219      49.832551      49.986543      116.00583    
      8100  -21107.316      113.50195     -20993.814      49.829571      49.983889      116.06161    
      8200  -21107.403      116.19226     -20991.211      49.826329      49.980709      116.11738    
      8300  -21107.641      115.37768     -20992.263      49.823074      49.978907      116.17315    
      8400  -21102.864      110.73591     -20992.128      49.819103      49.97559       116.22892    
      8500  -21100.124      112.25143     -20987.872      49.816035      49.973159      116.2847     
      8600  -21096.929      113.00064     -20983.929      49.813707      49.972401      116.34047    
      8700  -21096.168      114.10081     -20982.067      49.810082      49.969299      116.39624    
      8800  -21094.875      111.64265     -20983.232      49.807789      49.968087      116.45201    
      8900  -21093.47       110.8387      -20982.631      49.804795      49.965917      116.50778    
      9000  -21092.355      112.82308     -20979.532      49.801343      49.964206      116.56356    
      9100  -21087.565      112.24737     -20975.318      49.797239      49.961732      116.61933    
      9200  -21086.635      116.04294     -20970.592      49.792308      49.95834       116.6751     
      9300  -21081.554      114.23093     -20967.323      49.788632      49.956654      116.73087    
      9400  -21079.717      113.80093     -20965.916      49.783441      49.952551      116.78664    
      9500  -21078.459      110.56591     -20967.893      49.780195      49.949897      116.84242    
      9600  -21079.412      113.75252     -20965.659      49.777198      49.945884      116.89819    
      9700  -21073.519      113.15377     -20960.365      49.773995      49.94153       116.95396    
      9800  -21070.381      114.2394      -20956.142      49.772455      49.939122      117.00973    
      9900  -21067.511      113.52584     -20953.986      49.769382      49.934021      117.0655     
     10000  -21065.564      114.2056      -20951.358      49.766646      49.929052      117.12128    
     10100  -21064.913      113.22488     -20951.688      49.764799      49.92506       117.17705    
     10200  -21064.259      111.88739     -20952.371      49.760282      49.919208      117.23282    
     10300  -21060.954      112.2728      -20948.681      49.757265      49.918295      117.28859    
     10400  -21055.477      112.71854     -20942.758      49.749663      49.913968      117.34436    
     10500  -21052.693      113.28731     -20939.405      49.743579      49.913258      117.40014    
     10600  -21052.736      115.6419      -20937.094      49.737621      49.910582      117.45591    
     10700  -21049.65       113.50865     -20936.142      49.731467      49.905387      117.51168    
     10800  -21047.995      112.18079     -20935.814      49.72798       49.902801      117.56745    
     10900  -21045.479      111.49647     -20933.982      49.722668      49.896596      117.62322    
     11000  -21039.633      112.96102     -20926.672      49.71916       49.892734      117.679      
     11100  -21036.673      115.34        -20921.333      49.715985      49.887135      117.73477    
     11200  -21033.668      115.82565     -20917.842      49.712445      49.879902      117.79054    
     11300  -21031.881      113.9732      -20917.907      49.710109      49.874539      117.84631    
     11400  -21031.218      112.93895     -20918.279      49.705545      49.866718      117.90208    
     11500  -21026.934      111.67068     -20915.264      49.70305       49.862322      117.95786    
     11600  -21023.847      113.63154     -20910.216      49.698868      49.856794      118.01363    
     11700  -21019.207      113.86579     -20905.341      49.694281      49.849999      118.0694     
     11800  -21017.826      114.92479     -20902.901      49.690846      49.844539      118.12517    
     11900  -21017.032      115.73518     -20901.297      49.684519      49.836587      118.18094    
     12000  -21015.491      116.19534     -20899.296      49.678917      49.831662      118.23672    
     12100  -21009.05       110.68029     -20898.369      49.671639      49.826547      118.29249    
     12200  -21008.151      113.04761     -20895.103      49.664376      49.82126       118.34826    
     12300  -21004.394      116.48053     -20887.913      49.658522      49.816635      118.40403    
     12400  -20998.483      115.19241     -20883.29       49.650763      49.808713      118.4598     
     12500  -20996.536      115.05798     -20881.478      49.645195      49.803424      118.51558    
     12600  -20995.24       112.58358     -20882.656      49.638489      49.796021      118.57135    
     12700  -20993.306      112.37321     -20880.933      49.632144      49.788529      118.62712    
     12800  -20990.601      113.56677     -20877.034      49.626936      49.781994      118.68289    
     12900  -20985.805      113.71397     -20872.091      49.619935      49.77224       118.73866    
     13000  -20984.762      117.7236      -20867.038      49.615754      49.765801      118.79444    
     13100  -20979.829      116.92303     -20862.906      49.60891       49.756398      118.85021    
     13200  -20977.042      114.28845     -20862.754      49.60189       49.747093      118.90598    
     13300  -20972.793      110.38474     -20862.408      49.595693      49.739822      118.96175    
     13400  -20971.707      112.63738     -20859.069      49.586861      49.729345      119.01752    
     13500  -20968.564      114.35013     -20854.214      49.58055       49.722284      119.0733     
     13600  -20964.426      117.74119     -20846.684      49.571236      49.711164      119.12907    
     13700  -20958.292      114.84888     -20843.443      49.564064      49.702347      119.18484    
     13800  -20956.955      114.48077     -20842.474      49.556119      49.692329      119.24061    
     13900  -20954.791      113.9445      -20840.846      49.547298      49.681371      119.29639    
     14000  -20950.187      112.43428     -20837.753      49.540397      49.673014      119.35216    
     14100  -20949.733      116.44037     -20833.293      49.53001       49.660797      119.40793    
     14200  -20944.542      115.52745     -20829.014      49.522499      49.652576      119.4637     
     14300  -20939.824      114.58102     -20825.243      49.513258      49.641327      119.51947    
     14400  -20939.343      114.83935     -20824.504      49.504589      49.62908       119.57525    
     14500  -20936.12       112.08509     -20824.035      49.497634      49.618066      119.63102    
     14600  -20931.5        111.74096     -20819.759      49.487369      49.603273      119.68679    
     14700  -20924.884      112.15069     -20812.733      49.479801      49.593063      119.74256    
     14800  -20924.085      115.15787     -20808.927      49.467762      49.578483      119.79833    
     14900  -20920.359      113.12276     -20807.236      49.457626      49.566436      119.85411    
     15000  -20918.261      113.04178     -20805.219      49.447141      49.553577      119.90988    
     15100  -20911.032      109.93993     -20801.092      49.435243      49.538445      119.96565    
     15200  -20908.934      112.81571     -20796.119      49.42636       49.526713      120.02142    
     15300  -20905.913      113.84079     -20792.072      49.414072      49.510818      120.07719    
     15400  -20903.674      114.03009     -20789.644      49.405017      49.498629      120.13297    
     15500  -20901.43       114.07299     -20787.357      49.392948      49.483208      120.18874    
     15600  -20894.273      111.22285     -20783.05       49.380942      49.467526      120.24451    
     15700  -20889.028      112.92216     -20776.106      49.36941       49.453068      120.30028    
     15800  -20887.091      116.0613      -20771.029      49.354333      49.436022      120.35605    
     15900  -20883.24       112.78584     -20770.454      49.341948      49.422973      120.41183    
     16000  -20881.274      111.95695     -20769.317      49.326758      49.406182      120.4676     
     16100  -20878.826      113.7787      -20765.048      49.313624      49.389629      120.52337    
     16200  -20874.534      114.8729      -20759.661      49.300608      49.372447      120.57914    
     16300  -20867.843      113.03059     -20754.812      49.285958      49.353828      120.63491    
     16400  -20864.596      113.87133     -20750.725      49.27315       49.337363      120.69069    
     16500  -20861.548      113.1318      -20748.417      49.257862      49.317807      120.74646    
     16600  -20859.925      112.88187     -20747.043      49.244442      49.30029       120.80223    
     16700  -20854.171      110.40477     -20743.766      49.229369      49.281915      120.858      
     16800  -20849.371      112.97983     -20736.391      49.213027      49.262839      120.91377    
     16900  -20844.653      114.27253     -20730.38       49.198612      49.245649      120.96955    
     17000  -20841.391      113.94282     -20727.448      49.181631      49.224414      121.02532    
     17100  -20838.483      112.74908     -20725.734      49.166786      49.205096      121.08109    
     17200  -20838.648      115.44672     -20723.201      49.150815      49.184322      121.13686    
     17300  -20830.692      111.24829     -20719.444      49.135228      49.162932      121.19263    
     17400  -20825.88       112.17228     -20713.707      49.120047      49.142179      121.24841    
     17500  -20821.801      115.63605     -20706.165      49.101867      49.11987       121.30418    
     17600  -20818.821      116.234       -20702.587      49.084977      49.099824      121.35995    
     17700  -20817.784      113.0362      -20704.748      49.066293      49.07766       121.41572    
     17800  -20811.823      111.70598     -20700.118      49.048985      49.055883      121.47149    
     17900  -20806.844      113.88213     -20692.962      49.032444      49.034762      121.52727    
     18000  -20802.619      115.96819     -20686.651      49.014174      49.011567      121.58304    
     18100  -20800.733      116.81221     -20683.921      48.998077      48.990231      121.63881    
     18200  -20793.922      110.17187     -20683.751      48.979933      48.966944      121.69458    
     18300  -20791.852      111.36608     -20680.486      48.962812      48.944533      121.75035    
     18400  -20786.805      111.48716     -20675.318      48.945339      48.92214       121.80613    
     18500  -20783.231      113.98297     -20669.248      48.926197      48.899167      121.8619     
     18600  -20778.547      114.79174     -20663.755      48.908608      48.877749      121.91767    
     18700  -20774.992      115.84884     -20659.143      48.888051      48.853911      121.97344    
     18800  -20771.441      114.66106     -20656.78       48.870077      48.832145      122.02921    
     18900  -20766.88       111.56913     -20655.311      48.851498      48.808924      122.08499    
     19000  -20763.03       112.22021     -20650.81       48.833271      48.784786      122.14076    
     19100  -20757.641      114.5005      -20643.141      48.81709       48.761727      122.19653    
     19200  -20752.081      115.00953     -20637.072      48.798166      48.737017      122.2523     
     19300  -20750.253      116.44514     -20633.807      48.781264      48.714573      122.30807    
     19400  -20743.25       111.55078     -20631.7        48.763101      48.692602      122.36385    
     19500  -20741.545      112.94286     -20628.602      48.742668      48.670071      122.41962    
     19600  -20738.883      114.29357     -20624.589      48.725453      48.65017       122.47539    
     19700  -20732.76       113.27222     -20619.488      48.705646      48.627549      122.53116    
     19800  -20726.987      114.1692      -20612.818      48.688654      48.605975      122.58694    
     19900  -20720.807      115.5815      -20605.226      48.672442      48.583475      122.64271    
     20000  -20718.544      115.25965     -20603.285      48.654893      48.559096      122.69848    
     20100  -20715.923      113.35681     -20602.566      48.64047       48.5374        122.75425    
     20200  -20712.23       113.67187     -20598.558      48.622358      48.514503      122.81002    
     20300  -20708.008      114.38387     -20593.624      48.60569       48.494036      122.8658     
     20400  -20700.563      113.14742     -20587.416      48.587872      48.473129      122.92157    
     20500  -20695.297      115.28691     -20580.01       48.570102      48.452316      122.97734    
     20600  -20693.055      116.15218     -20576.903      48.553979      48.432953      123.03311    
     20700  -20689.541      112.14164     -20577.399      48.535854      48.412308      123.08888    
     20800  -20685.863      112.41791     -20573.445      48.520362      48.393719      123.14466    
     20900  -20680.88       113.72928     -20567.15       48.503556      48.374425      123.20043    
     21000  -20675.562      115.18236     -20560.379      48.487612      48.355935      123.2562     
     21100  -20670.299      115.44209     -20554.857      48.471701      48.338138      123.31197    
     21200  -20666.171      114.18907     -20551.982      48.454707      48.319531      123.36774    
     21300  -20663.395      111.60841     -20551.787      48.440063      48.302635      123.42352    
     21400  -20657.714      110.23737     -20547.476      48.423769      48.284164      123.47929    
     21500  -20652.257      112.33819     -20539.919      48.409468      48.266588      123.53506    
     21600  -20647.068      114.03588     -20533.032      48.395134      48.248599      123.59083    
     21700  -20641.765      112.69793     -20529.067      48.380663      48.230022      123.6466     
     21800  -20636.922      111.24627     -20525.676      48.368428      48.213204      123.70238    
     21900  -20635.349      113.46574     -20521.884      48.354011      48.195755      123.75815    
     22000  -20633.028      112.78328     -20520.245      48.341819      48.180913      123.81392    
     22100  -20628.39       111.62357     -20516.766      48.327781      48.166039      123.86969    
     22200  -20622.974      114.3805      -20508.594      48.313749      48.151316      123.92546    
     22300  -20615.938      114.59611     -20501.342      48.300566      48.137037      123.98124    
     22400  -20610.272      113.6075      -20496.665      48.285991      48.120701      124.03701    
     22500  -20608.031      113.18692     -20494.844      48.274776      48.106345      124.09278    
     22600  -20604.18       111.68449     -20492.496      48.261896      48.091081      124.14855    
     22700  -20596.467      109.94885     -20486.518      48.249242      48.077049      124.20432    
     22800  -20593.609      114.02705     -20479.582      48.237497      48.063947      124.2601     
     22900  -20586.966      113.47798     -20473.488      48.224305      48.050017      124.31587    
     23000  -20582.207      114.06892     -20468.138      48.213277      48.037843      124.37164    
     23100  -20577.149      113.55647     -20463.592      48.20086       48.025311      124.42741    
     23200  -20573.551      112.25556     -20461.295      48.189259      48.013865      124.48318    
     23300  -20569.799      111.19666     -20458.602      48.17871       48.00296       124.53896    
     23400  -20565.017      112.83726     -20452.18       48.166383      47.989902      124.59473    
     23500  -20560.229      116.40095     -20443.828      48.157636      47.978157      124.6505     
     23600  -20551.933      113.24147     -20438.692      48.146287      47.964569      124.70627    
     23700  -20550.582      115.36122     -20435.221      48.136464      47.952194      124.76204    
     23800  -20545.713      113.31807     -20432.395      48.127423      47.940773      124.81782    
     23900  -20540.736      108.59086     -20432.146      48.116807      47.9281        124.87359    
     24000  -20538.101      109.7498      -20428.351      48.108903      47.917286      124.92936    
     24100  -20530.212      110.02747     -20420.184      48.0989        47.905133      124.98513    
     24200  -20524.266      112.13265     -20412.133      48.089864      47.894116      125.0409     
     24300  -20519.242      114.3318      -20404.91       48.080179      47.883557      125.09668    
     24400  -20515.02       115.8874      -20399.133      48.069538      47.87278       125.15245    
     24500  -20507.674      111.47928     -20396.195      48.061414      47.864157      125.20822    
     24600  -20505.289      110.46323     -20394.826      48.050834      47.854555      125.26399    
     24700  -20501.612      112.03951     -20389.573      48.041295      47.846442      125.31976    
     24800  -20494.338      113.57028     -20380.768      48.031996      47.838849      125.37554    
     24900  -20488.235      113.19613     -20375.039      48.021134      47.82914       125.43131    
     25000  -20483.772      112.94439     -20370.828      48.013695      47.820289      125.48708    
     25100  -20482.168      115.13318     -20367.035      48.004042      47.809114      125.54285    
     25200  -20475.71       111.79436     -20363.916      47.996914      47.799813      125.59863    
     25300  -20468.952      108.92757     -20360.024      47.9885        47.789922      125.6544     
     25400  -20465.239      113.35047     -20351.889      47.979287      47.779728      125.71017    
     25500  -20457.532      114.08983     -20343.442      47.972214      47.771137      125.76594    
     25600  -20451.576      113.62975     -20337.946      47.962308      47.761762      125.82171    
     25700  -20448.811      113.743       -20335.068      47.954172      47.753601      125.87749    
     25800  -20445.813      113.43522     -20332.377      47.946398      47.745583      125.93326    
     25900  -20439.803      110.37297     -20329.43       47.937701      47.73674       125.98903    
     26000  -20432.911      108.93073     -20323.98       47.931196      47.728576      126.0448     
     26100  -20427.857      113.18728     -20314.669      47.923652      47.719359      126.10057    
     26200  -20421.962      114.58379     -20307.378      47.916929      47.710348      126.15635    
     26300  -20416.307      112.98292     -20303.324      47.910897      47.701842      126.21212    
     26400  -20411.498      110.49813     -20301          47.90239       47.692277      126.26789    
     26500  -20407.451      109.12904     -20298.322      47.896074      47.684698      126.32366    
     26600  -20404.589      114.17705     -20290.412      47.887498      47.676129      126.37943    
     26700  -20398.166      116.44928     -20281.717      47.879553      47.668787      126.43521    
     26800  -20391.179      114.0282      -20277.151      47.870669      47.661584      126.49098    
     26900  -20385.72       111.53464     -20274.185      47.860809      47.654351      126.54675    
     27000  -20381.857      111.89926     -20269.957      47.852814      47.648564      126.60252    
     27100  -20376.357      113.87561     -20262.481      47.843628      47.641637      126.65829    
     27200  -20367.077      113.39306     -20253.684      47.836399      47.635483      126.71407    
     27300  -20362.892      114.70844     -20248.184      47.828599      47.627821      126.76984    
     27400  -20359.777      115.11344     -20244.664      47.820996      47.619189      126.82561    
     27500  -20353.613      113.44711     -20240.166      47.814223      47.610701      126.88138    
     27600  -20347.443      112.39581     -20235.047      47.806737      47.601704      126.93715    
     27700  -20342.567      111.884       -20230.683      47.80052       47.593839      126.99293    
     27800  -20339.012      111.7155      -20227.297      47.793103      47.585895      127.0487     
     27900  -20334.855      111.4694      -20223.386      47.78586       47.578501      127.10447    
     28000  -20328.656      113.22167     -20215.435      47.779662      47.571558      127.16024    
     28100  -20319.929      113.34588     -20206.583      47.772129      47.563655      127.21601    
     28200  -20315.839      115.20478     -20200.635      47.765436      47.555938      127.27179    
     28300  -20310.424      113.39463     -20197.03       47.758803      47.548055      127.32756    
     28400  -20307.405      111.89921     -20195.506      47.751463      47.539409      127.38333    
     28500  -20301.41       110.44795     -20190.962      47.745433      47.531912      127.4391     
     28600  -20294.559      110.56661     -20183.993      47.737916      47.523927      127.49487    
     28700  -20291.511      114.96807     -20176.543      47.729959      47.516754      127.55065    
     28800  -20283.237      114.46953     -20168.768      47.721821      47.510671      127.60642    
     28900  -20276.544      114.11174     -20162.432      47.71192       47.504286      127.66219    
     29000  -20270.911      112.58779     -20158.324      47.703141      47.498844      127.71796    
     29100  -20269.433      111.74709     -20157.686      47.693934      47.492877      127.77373    
     29200  -20264.287      112.4336      -20151.854      47.685672      47.487485      127.82951    
     29300  -20255.342      112.15681     -20143.185      47.677269      47.481052      127.88528    
     29400  -20249.15       113.0635      -20136.086      47.669273      47.473958      127.94105    
     29500  -20243.384      113.13758     -20130.246      47.662841      47.466889      127.99682    
     29600  -20237.695      112.96135     -20124.734      47.655576      47.458984      128.05259    
     29700  -20232.183      111.32306     -20120.86       47.648117      47.451376      128.10837    
     29800  -20228.861      110.82766     -20118.033      47.641101      47.443835      128.16414    
     29900  -20224.567      112.24236     -20112.325      47.633822      47.436203      128.21991    
     30000  -20215.707      113.11126     -20102.596      47.626935      47.428786      128.27568    
     30100  -20210.192      114.91263     -20095.28       47.619507      47.421004      128.33145    
     30200  -20204.816      114.6596      -20090.157      47.612246      47.412759      128.38723    
     30300  -20200.064      113.27596     -20086.788      47.60515       47.405238      128.443      
     30400  -20196.689      112.58985     -20084.099      47.596632      47.397719      128.49877    
     30500  -20188.147      108.42363     -20079.724      47.588742      47.391554      128.55454    
     30600  -20181.708      111.6167      -20070.091      47.579873      47.385154      128.61032    
     30700  -20176.334      114.56669     -20061.767      47.571992      47.379368      128.66609    
     30800  -20171.004      114.99912     -20056.005      47.563702      47.372852      128.72186    
     30900  -20164.099      111.83505     -20052.264      47.555489      47.366123      128.77763    
     31000  -20161.815      112.18941     -20049.625      47.547914      47.359618      128.8334     
     31100  -20157.813      113.14544     -20044.667      47.53961       47.351956      128.88918    
     31200  -20149.905      115.95927     -20033.946      47.532664      47.34415       128.94495    
     31300  -20141.316      114.76607     -20026.55       47.526015      47.336         129.00072    
     31400  -20134.75       113.30978     -20021.44       47.518168      47.3272        129.05649    
     31500  -20131.499      113.50908     -20017.99       47.511188      47.320006      129.11226    
     31600  -20126.608      111.74759     -20014.861      47.502478      47.312011      129.16804    
     31700  -20119.552      110.1176      -20009.435      47.495206      47.305253      129.22381    
     31800  -20112.855      114.34615     -19998.509      47.487548      47.298245      129.27958    
     31900  -20103.866      112.44962     -19991.416      47.478565      47.290639      129.33535    
     32000  -20102.597      115.37516     -19987.222      47.470749      47.28373       129.39112    
     32100  -20096.741      111.97421     -19984.767      47.462396      47.276412      129.4469     
     32200  -20091.22       111.78345     -19979.437      47.454134      47.269079      129.50267    
     32300  -20084.226      112.77497     -19971.451      47.44626       47.262579      129.55844    
     32400  -20079.333      115.57369     -19963.76       47.436554      47.254789      129.61421    
     32500  -20074.368      116.0269      -19958.341      47.427939      47.247941      129.66998    
     32600  -20068.349      114.35527     -19953.994      47.419017      47.240294      129.72576    
     32700  -20061.55       112.13127     -19949.419      47.410876      47.232644      129.78153    
     32800  -20056.019      112.4013      -19943.618      47.403704      47.225557      129.8373     
     32900  -20047.201      112.71459     -19934.486      47.394633      47.217147      129.89307    
     33000  -20041.214      114.49386     -19926.72       47.387235      47.209799      129.94884    
     33100  -20034.456      112.11155     -19922.344      47.378858      47.201976      130.00462    
     33200  -20036.138      115.13062     -19921.007      47.37037       47.19445       130.06039    
     33300  -20026.232      110.51356     -19915.719      47.362367      47.18795       130.11616    
     33400  -20022.09       113.86818     -19908.221      47.352773      47.180546      130.17193    
     33500  -20013.488      113.1412      -19900.346      47.34426       47.174092      130.2277     
     33600  -20005.556      112.5327      -19893.023      47.334949      47.166596      130.28348    
     33700  -20000.887      113.44376     -19887.443      47.32658       47.158963      130.33925    
     33800  -19997.736      111.82435     -19885.911      47.318917      47.150725      130.39502    
     33900  -19992.508      112.01536     -19880.493      47.310763      47.141761      130.45079    
     34000  -19982.969      111.64631     -19871.323      47.303302      47.133655      130.50656    
     34100  -19976.753      113.44728     -19863.306      47.294501      47.124946      130.56234    
     34200  -19969.76       112.15528     -19857.604      47.28597       47.117813      130.61811    
     34300  -19964.012      111.12422     -19852.888      47.276624      47.110941      130.67388    
     34400  -19961.752      111.43151     -19850.321      47.266827      47.10425       130.72965    
     34500  -19956.213      110.43289     -19845.78       47.257433      47.097786      130.78542    
     34600  -19950.237      114.37719     -19835.859      47.248121      47.089634      130.8412     
     34700  -19942.564      114.49454     -19828.07       47.239303      47.080545      130.89697    
     34800  -19936.181      114.00301     -19822.178      47.231685      47.071847      130.95274    
     34900  -19930.368      113.12138     -19817.247      47.223171      47.062792      131.00851    
     35000  -19921.987      108.64762     -19813.339      47.215095      47.054322      131.06428    
     35100  -19919.559      111.72348     -19807.836      47.206514      47.0467        131.12006    
     35200  -19911.19       113.21552     -19797.975      47.196931      47.039308      131.17583    
     35300  -19903.018      113.07704     -19789.941      47.187753      47.032209      131.2316     
     35400  -19899.309      114.50459     -19784.805      47.178262      47.02421       131.28737    
     35500  -19895.616      114.57637     -19781.04       47.168967      47.015888      131.34314    
     35600  -19888.915      110.9658      -19777.949      47.159826      47.007701      131.39892    
     35700  -19884.401      110.41139     -19773.99       47.150615      46.998885      131.45469    
     35800  -19877.794      113.30217     -19764.492      47.142312      46.990302      131.51046    
     35900  -19868.886      113.80628     -19755.08       47.134351      46.98122       131.56623    
     36000  -19861.882      114.21788     -19747.664      47.125865      46.971669      131.622      
     36100  -19857.915      115.79981     -19742.116      47.117395      46.963635      131.67778    
     36200  -19852.979      113.45109     -19739.528      47.107438      46.95559       131.73355    
     36300  -19845.712      110.23122     -19735.481      47.097856      46.94886       131.78932    
     36400  -19839.964      112.56213     -19727.402      47.088272      46.941839      131.84509    
     36500  -19832.334      112.67666     -19719.657      47.079003      46.933982      131.90087    
     36600  -19824.587      112.31398     -19712.273      47.070615      46.925422      131.95664    
     36700  -19820.332      115.64552     -19704.686      47.060746      46.915551      132.01241    
     36800  -19812.335      113.15626     -19699.179      47.051523      46.906975      132.06818    
     36900  -19810.291      113.03991     -19697.251      47.041752      46.897907      132.12395    
     37000  -19803.452      111.45033     -19692.001      47.032384      46.888821      132.17973    
     37100  -19796.198      112.97275     -19683.225      47.02351       46.87996       132.2355     
     37200  -19788.481      113.26701     -19675.214      47.013781      46.870345      132.29127    
     37300  -19782.965      114.57755     -19668.387      47.004388      46.861505      132.34704    
     37400  -19775.541      113.96761     -19661.574      46.995154      46.852893      132.40281    
     37500  -19770.64       115.83946     -19654.801      46.985362      46.844392      132.45859    
     37600  -19763.321      113.48465     -19649.836      46.976348      46.836328      132.51436    
     37700  -19758.679      111.99371     -19646.685      46.966538      46.827468      132.57013    
     37800  -19750.544      110.05002     -19640.494      46.957633      46.818886      132.6259     
     37900  -19743.81       113.60236     -19630.208      46.948101      46.809794      132.68167    
     38000  -19736.998      114.04481     -19622.953      46.937902      46.800473      132.73745    
     38100  -19732.579      114.61998     -19617.959      46.928242      46.79155       132.79322    
     38200  -19727.163      112.62133     -19614.542      46.919025      46.782628      132.84899    
     38300  -19723.614      113.30887     -19610.305      46.90997       46.773402      132.90476    
     38400  -19714.087      111.53174     -19602.555      46.901105      46.764168      132.96053    
     38500  -19706.212      112.23143     -19593.98       46.89238       46.755864      133.01631    
     38600  -19704.736      117.69845     -19587.037      46.882085      46.747296      133.07208    
     38700  -19694.095      113.15482     -19580.94       46.871608      46.738963      133.12785    
     38800  -19690.507      114.0214      -19576.486      46.86102       46.73071       133.18362    
     38900  -19685.817      113.30073     -19572.516      46.850456      46.721505      133.23939    
     39000  -19677.797      111.90078     -19565.897      46.840353      46.711856      133.29517    
     39100  -19670.861      116.16551     -19554.695      46.831107      46.702501      133.35094    
     39200  -19661.327      114.02779     -19547.299      46.820945      46.692418      133.40671    
     39300  -19655.597      113.35983     -19542.237      46.811363      46.683457      133.46248    
     39400  -19651.132      112.42632     -19538.706      46.801499      46.674686      133.51825    
     39500  -19645.807      111.22892     -19534.578      46.791237      46.665438      133.57403    
     39600  -19641.638      113.60968     -19528.028      46.781914      46.656993      133.6298     
     39700  -19629.122      112.00846     -19517.113      46.771789      46.648009      133.68557    
     39800  -19624.298      114.83095     -19509.467      46.761701      46.63974       133.74134    
     39900  -19619.858      114.44816     -19505.41       46.75113       46.630259      133.79711    
     40000  -19614.618      112.67702     -19501.941      46.740702      46.620488      133.85289    
     40100  -19607.357      112.27199     -19495.085      46.731524      46.611282      133.90866    
     40200  -19598.379      111.56399     -19486.815      46.721849      46.601163      133.96443    
     40300  -19594.452      115.00731     -19479.444      46.711547      46.590912      134.0202     
     40400  -19585.319      112.43714     -19472.882      46.701291      46.582303      134.07597    
     40500  -19583.031      116.47997     -19466.551      46.689616      46.57325       134.13175    
     40600  -19572.159      112.31787     -19459.841      46.678217      46.564707      134.18752    
     40700  -19564.818      113.331       -19451.487      46.667114      46.556223      134.24329    
     40800  -19558.087      114.3854      -19443.702      46.656386      46.547471      134.29906    
     40900  -19552.422      112.33393     -19440.088      46.646236      46.538646      134.35483    
     41000  -19548.98       112.2675      -19436.713      46.636184      46.528897      134.41061    
     41100  -19542.411      112.3613      -19430.05       46.627059      46.51972       134.46638    
     41200  -19534.037      112.35059     -19421.687      46.617586      46.51022       134.52215    
     41300  -19531.786      117.24483     -19414.541      46.607901      46.501258      134.57792    
     41400  -19520.334      111.92861     -19408.405      46.59695       46.492626      134.63369    
     41500  -19515.896      113.58073     -19402.315      46.58558       46.484426      134.68947    
     41600  -19509.079      112.68813     -19396.391      46.574109      46.476528      134.74524    
     41700  -19503.41       111.7275      -19391.683      46.562309      46.467538      134.80101    
     41800  -19499.688      112.12983     -19387.558      46.551535      46.458413      134.85678    
     41900  -19492.562      111.96871     -19380.594      46.541474      46.449017      134.91256    
     42000  -19483.369      113.62727     -19369.742      46.53138       46.438917      134.96833    
     42100  -19476.511      114.10929     -19362.402      46.521881      46.42929       135.0241     
     42200  -19470.242      113.68846     -19356.553      46.511559      46.418947      135.07987    
     42300  -19467.053      114.3212      -19352.732      46.501573      46.40972       135.13564    
     42400  -19458.563      109.22208     -19349.341      46.491195      46.40044       135.19142    
     42500  -19451.113      110.4292      -19340.684      46.480536      46.390877      135.24719    
     42600  -19443.922      113.7853      -19330.136      46.47092       46.382924      135.30296    
     42700  -19438.837      115.03809     -19323.798      46.459777      46.373225      135.35873    
     42800  -19431.712      113.56419     -19318.147      46.449522      46.364261      135.4145     
     42900  -19426.241      112.77861     -19313.463      46.440158      46.354807      135.47028    
     43000  -19419.631      111.35529     -19308.276      46.430127      46.343681      135.52605    
     43100  -19413.296      111.79703     -19301.499      46.421428      46.334895      135.58182    
     43200  -19402.806      112.09253     -19290.714      46.411228      46.3246        135.63759    
     43300  -19398.016      114.94744     -19283.069      46.4015        46.31639       135.69336    
     43400  -19393.877      115.16079     -19278.716      46.390687      46.307101      135.74914    
     43500  -19388.963      114.1926      -19274.77       46.37903       46.296412      135.80491    
     43600  -19378.998      110.26097     -19268.737      46.369977      46.288158      135.86068    
     43700  -19372.646      116.05453     -19256.591      46.358645      46.276862      135.91645    
     43800  -19366.265      117.36462     -19248.9        46.348996      46.267656      135.97222    
     43900  -19359.216      113.78978     -19245.426      46.339752      46.258819      136.028      
     44000  -19356.471      114.74477     -19241.726      46.329246      46.247981      136.08377    
     44100  -19347.139      111.24399     -19235.895      46.321262      46.240077      136.13954    
     44200  -19341.94       114.99849     -19226.942      46.311599      46.22995       136.19531    
     44300  -19332.547      115.85798     -19216.689      46.301801      46.219673      136.25108    
     44400  -19327.588      116.42763     -19211.161      46.293206      46.210779      136.30686    
     44500  -19320.027      113.26251     -19206.764      46.282256      46.199825      136.36263    
     44600  -19315.354      113.13647     -19202.217      46.272785      46.192014      136.4184     
     44700  -19308.872      113.05004     -19195.822      46.262254      46.183357      136.47417    
     44800  -19301.787      115.48882     -19186.298      46.251137      46.173908      136.52994    
     44900  -19290.757      114.99992     -19175.758      46.241099      46.166099      136.58572    
     45000  -19286.951      116.08        -19170.871      46.229163      46.155793      136.64149    
     45100  -19281.825      114.62646     -19167.199      46.218794      46.147668      136.69726    
     45200  -19275.031      112.68887     -19162.342      46.208564      46.13908       136.75303    
     45300  -19271.013      114.75187     -19156.261      46.198019      46.129261      136.8088     
     45400  -19260.677      112.75759     -19147.92       46.189485      46.120932      136.86458    
     45500  -19252.627      115.55816     -19137.069      46.180331      46.110336      136.92035    
     45600  -19248.185      116.79524     -19131.39       46.171891      46.100425      136.97612    
     45700  -19240.52       112.53955     -19127.981      46.1636        46.090868      137.03189    
     45800  -19236.211      113.72865     -19122.482      46.154564      46.08043       137.08766    
     45900  -19229.469      113.20486     -19116.264      46.146811      46.071693      137.14344    
     46000  -19224.019      114.95154     -19109.068      46.137539      46.061343      137.19921    
     46100  -19215.856      116.24384     -19099.612      46.128832      46.051588      137.25498    
     46200  -19205.032      113.34373     -19091.688      46.120568      46.04241       137.31075    
     46300  -19199.102      110.81674     -19088.285      46.111045      46.033045      137.36652    
     46400  -19198.2        113.96978     -19084.23       46.101511      46.024261      137.4223     
     46500  -19189.222      112.02914     -19077.193      46.09123       46.015544      137.47807    
     46600  -19181.559      112.46738     -19069.092      46.080318      46.007323      137.53384    
     46700  -19176.777      116.1268      -19060.65       46.0696        46.000119      137.58961    
     46800  -19166.23       114.49813     -19051.732      46.05827       45.992135      137.64538    
     46900  -19160.977      114.51302     -19046.464      46.047812      45.9848        137.70116    
     47000  -19157.366      113.48961     -19043.876      46.037691      45.97707       137.75693    
     47100  -19151.48       113.48556     -19037.995      46.028233      45.967806      137.8127     
     47200  -19144.388      113.98459     -19030.403      46.020044      45.958277      137.86847    
     47300  -19137.288      116.81782     -19020.47       46.012306      45.948059      137.92425    
     47400  -19129.457      117.88594     -19011.571      46.004851      45.937531      137.98002    
     47500  -19123.353      114.37802     -19008.974      45.99777       45.927433      138.03579    
     47600  -19116.185      112.07234     -19004.113      45.990312      45.917102      138.09156    
     47700  -19111.204      114.09788     -18997.106      45.982992      45.907588      138.14733    
     47800  -19102.841      114.15016     -18988.691      45.974862      45.898535      138.20311    
     47900  -19094.16       114.00085     -18980.159      45.965858      45.890245      138.25888    
     48000  -19090.21       117.10763     -18973.102      45.956719      45.882815      138.31465    
     48100  -19083.731      113.19485     -18970.536      45.947014      45.875377      138.37042    
     48200  -19074.418      108.30473     -18966.114      45.937195      45.867922      138.42619    
     48300  -19072.688      113.65774     -18959.031      45.926857      45.860139      138.48197    
     48400  -19061.33       112.34983     -18948.98       45.916534      45.852875      138.53774    
     48500  -19054.501      113.8229      -18940.678      45.906364      45.845884      138.59351    
     48600  -19049.021      113.92877     -18935.092      45.895956      45.837714      138.64928    
     48700  -19041.808      112.58767     -18929.221      45.88698       45.830733      138.70505    
     48800  -19034.527      111.03531     -18923.491      45.877928      45.822232      138.76083    
     48900  -19031.104      112.92922     -18918.175      45.869126      45.813037      138.8166     
     49000  -19024.337      111.44878     -18912.888      45.86218       45.806151      138.87237    
     49100  -19017.843      111.80437     -18906.039      45.853046      45.795853      138.92814    
     49200  -19007.864      112.28799     -18895.576      45.845012      45.787468      138.98391    
     49300  -19001.563      113.64181     -18887.921      45.837116      45.779805      139.03969    
     49400  -18997.565      113.44783     -18884.118      45.828551      45.769834      139.09546    
     49500  -18994.928      115.26515     -18879.663      45.822327      45.76207       139.15123    
     49600  -18984.562      112.32019     -18872.241      45.814814      45.751531      139.207      
     49700  -18976.85       113.64733     -18863.203      45.807669      45.742555      139.26277    
     49800  -18970.918      115.5546      -18855.364      45.80127       45.735582      139.31855    
     49900  -18962.567      113.66797     -18848.899      45.791858      45.725504      139.37432    
     50000  -18957.429      112.52249     -18844.907      45.784134      45.718698      139.43009    
     50100  -18951.96       111.78587     -18840.175      45.775543      45.711178      139.48586    
     50200  -18945.786      114.2336      -18831.552      45.766425      45.702648      139.54163    
     50300  -18935.344      114.03104     -18821.313      45.759558      45.697026      139.59741    
     50400  -18928.948      114.9482      -18814          45.75051       45.688588      139.65318    
     50500  -18922.064      113.70488     -18808.359      45.741902      45.681611      139.70895    
     50600  -18916.809      114.27007     -18802.539      45.73341       45.67514       139.76472    
     50700  -18909.468      113.31774     -18796.15       45.72372       45.665984      139.82049    
     50800  -18903.101      113.01834     -18790.083      45.716101      45.65941       139.87627    
     50900  -18895.879      111.89333     -18783.985      45.707652      45.650725      139.93204    
     51000  -18888.315      111.13537     -18777.18       45.700244      45.642592      139.98781    
     51100  -18881.969      113.60608     -18768.362      45.694049      45.635503      140.04358    
     51200  -18875.261      115.88423     -18759.377      45.68653       45.625626      140.09935    
     51300  -18868.204      114.90927     -18753.295      45.680709      45.617604      140.15513    
     51400  -18862.808      112.82164     -18749.986      45.67421       45.608502      140.2109     
     51500  -18854.785      110.62108     -18744.164      45.667401      45.59901       140.26667    
     51600  -18847.326      111.42691     -18735.899      45.661493      45.59097       140.32244    
     51700  -18840.975      113.48913     -18727.486      45.654352      45.581838      140.37821    
     51800  -18832.182      111.87423     -18720.307      45.647813      45.575009      140.43399    
     51900  -18826.329      112.43669     -18713.892      45.640565      45.568171      140.48976    
     52000  -18821.238      113.45355     -18707.784      45.632052      45.560146      140.54553    
     52100  -18817.024      113.93528     -18703.089      45.624608      45.554785      140.6013     
     52200  -18810.646      111.4635      -18699.182      45.615369      45.548235      140.65707    
     52300  -18802.385      111.85771     -18690.527      45.606509      45.542559      140.71285    
     52400  -18793.053      113.67592     -18679.377      45.598086      45.536935      140.76862    
     52500  -18788.597      116.23847     -18672.359      45.589182      45.529293      140.82439    
     52600  -18780.831      113.97411     -18666.857      45.582159      45.523296      140.88016    
     52700  -18773.775      111.26192     -18662.513      45.574826      45.515906      140.93593    
     52800  -18772.432      115.48708     -18656.945      45.568329      45.50825       140.99171    
     52900  -18759.066      108.98822     -18650.078      45.562836      45.500638      141.04748    
     53000  -18754.272      114.73948     -18639.533      45.556641      45.491064      141.10325    
     53100  -18744.338      114.34947     -18629.989      45.551036      45.482708      141.15902    
     53200  -18736.743      113.42786     -18623.315      45.544761      45.474216      141.2148     
     53300  -18734.4        114.57675     -18619.823      45.538156      45.466066      141.27057    
     53400  -18726.453      112.46023     -18613.993      45.531831      45.459053      141.32634    
     53500  -18720.288      114.09577     -18606.192      45.524477      45.451166      141.38211    
     53600  -18712.004      113.68644     -18598.317      45.518365      45.445164      141.43788    
     53700  -18706.152      114.84763     -18591.305      45.511572      45.438261      141.49366    
     53800  -18698.921      112.00765     -18586.914      45.504545      45.430789      141.54943    
     53900  -18693.67       110.70282     -18582.968      45.498893      45.425085      141.6052     
     54000  -18686.602      113.07348     -18573.528      45.492119      45.417309      141.66097    
     54100  -18677.121      113.97317     -18563.148      45.485345      45.410191      141.71674    
     54200  -18673.037      117.31428     -18555.723      45.478774      45.404238      141.77252    
     54300  -18663.571      112.52402     -18551.047      45.471327      45.397355      141.82829    
     54400  -18658.996      113.11254     -18545.883      45.464381      45.391523      141.88406    
     54500  -18651.87       113.50388     -18538.367      45.457262      45.385065      141.93983    
     54600  -18645.412      115.04041     -18530.371      45.449479      45.378122      141.9956     
     54700  -18637.375      114.28778     -18523.088      45.442565      45.372497      142.05138    
     54800  -18632.193      113.12384     -18519.069      45.435762      45.366178      142.10715    
     54900  -18626.282      112.09486     -18514.187      45.429255      45.35897       142.16292    
     55000  -18616.396      111.42623     -18504.97       45.424011      45.352634      142.21869    
     55100  -18611.502      115.48223     -18496.02       45.418299      45.344556      142.27446    
     55200  -18601.98       113.10294     -18488.877      45.413104      45.337255      142.33024    
     55300  -18597.053      114.66119     -18482.391      45.407846      45.330369      142.38601    
     55400  -18588.242      111.96967     -18476.272      45.401895      45.323073      142.44178    
     55500  -18583.971      111.48886     -18472.482      45.395855      45.316522      142.49755    
     55600  -18578.505      110.71169     -18467.794      45.389377      45.309631      142.55332    
     55700  -18569.604      111.62858     -18457.975      45.383038      45.302826      142.6091     
     55800  -18561.989      114.18036     -18447.808      45.376392      45.296113      142.66487    
     55900  -18553.585      113.23457     -18440.351      45.369662      45.289454      142.72064    
     56000  -18547.085      113.65825     -18433.427      45.363307      45.283726      142.77641    
     56100  -18543.419      115.89991     -18427.519      45.356612      45.277547      142.83218    
     56200  -18535.251      112.62278     -18422.628      45.350427      45.272231      142.88796    
     56300  -18526.706      109.63972     -18417.066      45.344559      45.266087      142.94373    
     56400  -18520.455      112.88868     -18407.566      45.338657      45.25873       142.9995     
     56500  -18511.512      115.48602     -18396.026      45.333564      45.252034      143.05527    
     56600  -18506.032      116.35906     -18389.673      45.328217      45.245275      143.11104    
     56700  -18499.363      114.04065     -18385.322      45.322365      45.238564      143.16682    
     56800  -18492.402      113.13115     -18379.271      45.316729      45.232564      143.22259    
     56900  -18487.973      115.88067     -18372.092      45.310904      45.226148      143.27836    
     57000  -18478.177      113.23301     -18364.944      45.305079      45.219902      143.33413    
     57100  -18471.56       113.02298     -18358.537      45.298936      45.213278      143.3899     
     57200  -18467.302      113.27148     -18354.031      45.29245       45.206628      143.44568    
     57300  -18456.437      109.15633     -18347.28       45.286072      45.200575      143.50145    
     57400  -18448.613      112.02224     -18336.591      45.279389      45.194625      143.55722    
     57500  -18442.941      116.85215     -18326.089      45.272788      45.188791      143.61299    
     57600  -18433.098      113.53676     -18319.561      45.266491      45.18273       143.66876    
     57700  -18426.524      112.27252     -18314.252      45.260763      45.17706       143.72454    
     57800  -18421.495      113.27277     -18308.223      45.254986      45.171087      143.78031    
     57900  -18414.601      113.03541     -18301.566      45.24921       45.164737      143.83608    
     58000  -18408.995      114.21914     -18294.776      45.244015      45.158874      143.89185    
     58100  -18405.144      114.11361     -18291.031      45.237969      45.151922      143.94762    
     58200  -18396.215      110.54711     -18285.668      45.232294      45.14555       144.0034     
     58300  -18389.472      114.02239     -18275.449      45.226577      45.138493      144.05917    
     58400  -18378.673      112.97266     -18265.701      45.221434      45.131677      144.11494    
     58500  -18374.179      116.45864     -18257.721      45.216296      45.124646      144.17071    
     58600  -18364.531      113.97202     -18250.559      45.211592      45.118654      144.22649    
     58700  -18357.244      110.60387     -18246.64       45.206208      45.111927      144.28226    
     58800  -18353.787      112.73147     -18241.055      45.200881      45.10578       144.33803    
     58900  -18346.388      114.52962     -18231.858      45.195291      45.099605      144.3938     
     59000  -18335.587      113.73783     -18221.849      45.189298      45.092987      144.44957    
     59100  -18329.246      115.19386     -18214.053      45.183912      45.087796      144.50535    
     59200  -18323.001      115.30205     -18207.699      45.177709      45.082093      144.56112    
     59300  -18316.631      115.75139     -18200.88       45.17113       45.076798      144.61689    
     59400  -18308.417      113.69984     -18194.717      45.16511       45.071943      144.67266    
     59500  -18302.404      112.90077     -18189.503      45.158895      45.065406      144.72843    
     59600  -18294.107      111.29876     -18182.808      45.153808      45.059505      144.78421    
     59700  -18285.253      112.91491     -18172.338      45.148133      45.052316      144.83998    
     59800  -18278.552      117.68013     -18160.872      45.143085      45.045443      144.89575    
     59900  -18270.242      115.14492     -18155.097      45.138113      45.038713      144.95152    
     60000  -18265.762      115.04636     -18150.715      45.133106      45.032242      145.00729    
     60100  -18256.613      112.34154     -18144.272      45.127808      45.026219      145.06307    
     60200  -18251.284      114.1848      -18137.099      45.12243       45.020163      145.11884    
     60300  -18242.56       112.25581     -18130.304      45.117434      45.014592      145.17461    
     60400  -18237.372      111.72864     -18125.644      45.111723      45.008445      145.23038    
     60500  -18232.039      112.78977     -18119.25       45.105803      45.003188      145.28615    
     60600  -18222.896      113.69719     -18109.199      45.09989       44.998383      145.34193    
     60700  -18210.692      113.4969      -18097.196      45.093471      44.992373      145.3977     
     60800  -18204.804      114.8278      -18089.976      45.087862      44.98658       145.45347    
     60900  -18199.719      115.05109     -18084.668      45.082275      44.980252      145.50924    
     61000  -18194.2        115.66731     -18078.533      45.076326      44.973511      145.56501    
     61100  -18184.443      113.48503     -18070.958      45.071164      44.968064      145.62079    
     61200  -18174.954      111.37558     -18063.578      45.06565       44.961685      145.67656    
     61300  -18171.9        111.64146     -18060.258      45.05994       44.955182      145.73233    
     61400  -18166.537      113.46628     -18053.071      45.055252      44.950017      145.7881     
     61500  -18154.41       111.79099     -18042.619      45.049432      44.943272      145.84387    
     61600  -18146.968      114.69329     -18032.275      45.044106      44.938         145.89965    
     61700  -18137.983      113.91868     -18024.064      45.03845       44.931768      145.95542    
     61800  -18130.76       113.36324     -18017.397      45.032916      44.925272      146.01119    
     61900  -18125.703      115.05302     -18010.65       45.02817       44.91986       146.06696    
     62000  -18117.776      114.41797     -18003.358      45.022838      44.913367      146.12273    
     62100  -18107.783      111.56605     -17996.217      45.018508      44.907627      146.17851    
     62200  -18101.507      112.29591     -17989.211      45.013492      44.900435      146.23428    
     62300  -18097.824      114.28327     -17983.54       45.008827      44.894195      146.29005    
     62400  -18090.526      110.9603      -17979.566      45.003621      44.888201      146.34582    
     62500  -18080.715      110.52801     -17970.187      44.997551      44.881182      146.40159    
     62600  -18072.631      112.98418     -17959.647      44.992001      44.875859      146.45737    
     62700  -18062.667      112.31054     -17950.356      44.985137      44.869787      146.51314    
     62800  -18056.495      115.29941     -17941.196      44.978999      44.86571       146.56891    
     62900  -18050.383      115.3339      -17935.049      44.972697      44.860998      146.62468    
     63000  -18042.447      111.9881      -17930.459      44.966093      44.855207      146.68045    
     63100  -18031.219      109.73768     -17921.481      44.960471      44.850584      146.73623    
     63200  -18026.28       114.94483     -17911.335      44.954105      44.843841      146.792      
     63300  -18016.39       116.53715     -17899.853      44.948915      44.837783      146.84777    
     63400  -18007.241      116.01378     -17891.227      44.944081      44.831016      146.90354    
     63500  -18004.284      116.6073      -17887.676      44.939365      44.82341       146.95931    
     63600  -17993.662      111.93095     -17881.731      44.935808      44.817574      147.01509    
     63700  -17988.316      113.57414     -17874.742      44.931573      44.810151      147.07086    
     63800  -17979.398      112.23912     -17867.158      44.927593      44.803078      147.12663    
     63900  -17972.258      113.32054     -17858.938      44.923701      44.796596      147.1824     
     64000  -17961.901      110.75894     -17851.142      44.918634      44.789228      147.23818    
     64100  -17956.933      114.03974     -17842.893      44.913718      44.782804      147.29395    
     64200  -17946.919      114.19284     -17832.726      44.908115      44.77588       147.34972    
     64300  -17935.976      114.43457     -17821.541      44.902841      44.769823      147.40549    
     64400  -17928.077      114.61619     -17813.461      44.897452      44.764136      147.46126    
     64500  -17923.861      114.98467     -17808.876      44.891265      44.758065      147.51704    
     64600  -17913.99       113.14374     -17800.846      44.885269      44.753414      147.57281    
     64700  -17905.993      112.9086      -17793.085      44.878364      44.747441      147.62858    
     64800  -17898.741      112.54974     -17786.192      44.872233      44.742362      147.68435    
     64900  -17893.005      113.17847     -17779.827      44.865985      44.736861      147.74012    
     65000  -17884.186      110.84898     -17773.337      44.859548      44.730663      147.7959     
     65100  -17875.304      112.28373     -17763.02       44.854385      44.72558       147.85167    
     65200  -17863.516      114.54183     -17748.974      44.848664      44.718563      147.90744    
     65300  -17856.264      116.71499     -17739.549      44.843409      44.712221      147.96321    
     65400  -17845.331      112.2246      -17733.106      44.838602      44.706304      148.01898    
     65500  -17837.7        111.53724     -17726.163      44.833573      44.699225      148.07476    
     65600  -17830.814      113.69239     -17717.121      44.829266      44.692471      148.13053    
     65700  -17820.289      111.41017     -17708.879      44.824459      44.684865      148.1863     
     65800  -17818.184      115.90078     -17702.283      44.819813      44.678041      148.24207    
     65900  -17808.085      112.17278     -17695.912      44.815344      44.671318      148.29784    
     66000  -17799.555      112.39032     -17687.165      44.810304      44.663652      148.35362    
     66100  -17786.616      115.25424     -17671.362      44.806123      44.657427      148.40939    
     66200  -17777.9        116.70593     -17661.194      44.800803      44.65          148.46516    
     66300  -17768.964      113.88324     -17655.08       44.795868      44.643912      148.52093    
     66400  -17760.706      112.40175     -17648.304      44.790218      44.637797      148.5767     
     66500  -17750.948      110.96469     -17639.984      44.783621      44.631765      148.63248    
     66600  -17745.673      114.55853     -17631.115      44.777317      44.627111      148.68825    
     66700  -17736.8        112.66305     -17624.136      44.769598      44.620936      148.74402    
     66800  -17728.789      111.67226     -17617.117      44.763144      44.616837      148.79979    
     66900  -17719.498      111.49764     -17608          44.755656      44.610861      148.85556    
     67000  -17709.159      116.3457      -17592.814      44.749271      44.605341      148.91134    
     67100  -17698.722      118.52152     -17580.201      44.74383       44.599557      148.96711    
     67200  -17686.664      113.04684     -17573.617      44.738058      44.592014      149.02288    
     67300  -17680.819      114.98413     -17565.835      44.734192      44.586384      149.07865    
     67400  -17670.389      112.28949     -17558.099      44.729491      44.577724      149.13442    
     67500  -17662.665      112.88628     -17549.779      44.726063      44.570156      149.1902     
     67600  -17652.828      111.94827     -17540.88       44.721963      44.562292      149.24597    
     67700  -17644.994      112.44273     -17532.551      44.717213      44.554408      149.30174    
     67800  -17637.059      110.12052     -17526.939      44.712707      44.547845      149.35751    
     67900  -17629.189      113.43283     -17515.756      44.707254      44.540508      149.41328    
     68000  -17615.283      112.7196      -17502.563      44.701922      44.534322      149.46906    
     68100  -17605.482      114.19984     -17491.282      44.695525      44.528202      149.52483    
     68200  -17595.075      113.2024      -17481.873      44.688811      44.522509      149.5806     
     68300  -17587.863      115.62401     -17472.239      44.682432      44.517396      149.63637    
     68400  -17578.804      116.22316     -17462.58       44.675417      44.511051      149.69214    
     68500  -17568.869      115.17551     -17453.693      44.669261      44.505736      149.74792    
     68600  -17560.215      115.9612      -17444.254      44.66295       44.499776      149.80369    
     68700  -17548.393      113.15306     -17435.24       44.656832      44.493317      149.85946    
     68800  -17540.637      114.79046     -17425.847      44.651493      44.487534      149.91523    
     68900  -17532.198      116.03404     -17416.164      44.645026      44.480376      149.971      
     69000  -17519.411      113.737       -17405.674      44.639561      44.474242      150.02678    
     69100  -17512.295      117.17635     -17395.119      44.633997      44.467235      150.08255    
     69200  -17499.049      114.83649     -17384.213      44.628706      44.459928      150.13832    
     69300  -17488.632      113.85573     -17374.776      44.623638      44.452981      150.19409    
     69400  -17479.519      113.95207     -17365.567      44.6183        44.445595      150.24986    
     69500  -17471.152      115.26851     -17355.883      44.613595      44.438616      150.30564    
     69600  -17459.351      113.82857     -17345.522      44.609014      44.431449      150.36141    
     69700  -17449.782      114.24159     -17335.54       44.604278      44.423223      150.41718    
     69800  -17441.711      116.11998     -17325.591      44.600101      44.416031      150.47295    
     69900  -17431.968      116.02826     -17315.94       44.594751      44.408405      150.52873    
     70000  -17420.716      114.56193     -17306.154      44.589444      44.401979      150.5845     
     70100  -17409.056      113.15861     -17295.898      44.58361       44.395519      150.64027    
     70200  -17399.249      114.91822     -17284.331      44.57739       44.389074      150.69604    
     70300  -17389.938      115.14015     -17274.798      44.571055      44.383261      150.75181    
     70400  -17381.159      116.9137      -17264.245      44.564747      44.377638      150.80759    
     70500  -17368.215      113.76872     -17254.447      44.557905      44.371057      150.86336    
     70600  -17359.034      115.73485     -17243.3        44.551491      44.365053      150.91913    
     70700  -17348.777      114.94681     -17233.83       44.545026      44.358786      150.9749     
     70800  -17335.439      113.40448     -17222.034      44.538653      44.352034      151.03067    
     70900  -17328.399      116.28712     -17212.112      44.533252      44.34605       151.08645    
     71000  -17316.679      116.0138      -17200.665      44.527014      44.338102      151.14222    
     71100  -17306.292      115.38844     -17190.904      44.521883      44.331548      151.19799    
     71200  -17295.97       116.80272     -17179.167      44.516292      44.324254      151.25376    
     71300  -17284.058      115.58584     -17168.472      44.510601      44.316824      151.30953    
     71400  -17274.596      117.07004     -17157.526      44.505806      44.310356      151.36531    
     71500  -17263.81       116.83454     -17146.976      44.500203      44.30215       151.42108    
     71600  -17250.26       114.98374     -17135.276      44.495442      44.294677      151.47685    
     71700  -17238.644      115.44667     -17123.197      44.490502      44.287134      151.53262    
     71800  -17229.211      115.9157      -17113.295      44.485422      44.280101      151.58839    
     71900  -17221.655      118.19692     -17103.458      44.479525      44.273047      151.64417    
     72000  -17208.6        117.45894     -17091.141      44.473051      44.266215      151.69994    
     72100  -17198.894      118.53834     -17080.355      44.466641      44.260211      151.75571    
     72200  -17183.705      114.35865     -17069.347      44.459944      44.253774      151.81148    
     72300  -17172.675      114.95288     -17057.722      44.453196      44.247097      151.86725    
     72400  -17166.194      117.38203     -17048.812      44.447232      44.241012      151.92303    
     72500  -17154.393      117.54098     -17036.852      44.440697      44.233727      151.9788     
     72600  -17142.814      116.54272     -17026.271      44.434971      44.227509      152.03457    
     72700  -17130.632      117.37568     -17013.256      44.428936      44.220641      152.09034    
     72800  -17119.889      117.76124     -17002.128      44.4226        44.213089      152.14611    
     72900  -17107.785      118.72924     -16989.056      44.416945      44.206559      152.20189    
     73000  -17094.835      118.18287     -16976.652      44.410662      44.198836      152.25766    
     73100  -17088.679      121.59072     -16967.088      44.405364      44.191956      152.31343    
     73200  -17070.311      114.57313     -16955.738      44.399743      44.18391       152.3692     
[...]
    181600  -20857.055      111.61885     -20745.436      39.550698      50.239183      212.82609    
    181700  -20858.216      112.9626      -20745.254      39.526636      50.228982      212.88186    
    181800  -20860.367      115.68988     -20744.677      39.502869      50.214713      212.93763    
    181900  -20858.102      114.46067     -20743.641      39.477979      50.202274      212.99341    
    182000  -20856.697      115.7         -20740.997      39.454638      50.197147      213.04918    
    182100  -20852.343      112.50725     -20739.835      39.432872      50.200201      213.10495    
    182200  -20857.74       113.97339     -20743.766      39.412889      50.211672      213.16072    
    182300  -20858.403      112.53253     -20745.871      39.392918      50.225752      213.21649    
    182400  -20859.143      112.79834     -20746.345      39.373394      50.238703      213.27227    
    182500  -20858.279      113.51851     -20744.76       39.354246      50.248905      213.32804    
    182600  -20856.037      115.54094     -20740.496      39.334498      50.254883      213.38381    
    182700  -20855.363      115.10402     -20740.259      39.314937      50.258442      213.43958    
    182800  -20860.082      115.89154     -20744.191      39.295989      50.262393      213.49535    
    182900  -20856.819      111.71578     -20745.103      39.277282      50.273067      213.55113    
    183000  -20858.169      113.53908     -20744.63       39.257621      50.289407      213.6069     
    183100  -20857.845      114.63781     -20743.208      39.238375      50.306102      213.66267    
    183200  -20857.617      114.81001     -20742.807      39.219883      50.319552      213.71844    
    183300  -20853.991      110.99272     -20742.999      39.200121      50.330376      213.77421    
    183400  -20856.78       111.63501     -20745.145      39.178162      50.33876       213.82999    
    183500  -20858.423      110.84478     -20747.578      39.156095      50.343533      213.88576    
    183600  -20861.341      113.41446     -20747.926      39.134623      50.348639      213.94153    
    183700  -20858.27       114.84549     -20743.424      39.112933      50.357811      213.9973     
    183800  -20857.132      115.65165     -20741.48       39.09291       50.373004      214.05307    
    183900  -20857.587      114.57933     -20743.008      39.071336      50.389234      214.10885    
    184000  -20858.878      113.35328     -20745.525      39.050653      50.402373      214.16462    
    184100  -20859.247      112.83654     -20746.41       39.028581      50.407068      214.22039    
    184200  -20856.403      110.74536     -20745.657      39.007319      50.403198      214.27616    
    184300  -20859.243      114.37493     -20744.868      38.98633       50.396967      214.33193    
    184400  -20857.746      113.27834     -20744.468      38.964901      50.393981      214.38771    
    184500  -20858.631      114.07733     -20744.553      38.944467      50.398494      214.44348    
    184600  -20858.48       114.26804     -20744.212      38.925551      50.409259      214.49925    
    184700  -20857.637      114.34973     -20743.287      38.907055      50.422078      214.55502    
    184800  -20856.643      113.64187     -20743.001      38.888569      50.431403      214.61079    
    184900  -20857.069      112.71571     -20744.353      38.868658      50.430373      214.66657    
    185000  -20859.298      112.53147     -20746.766      38.84884       50.420096      214.72234    
    185100  -20859.1        110.78009     -20748.32       38.827904      50.40591       214.77811    
    185200  -20858.324      111.50772     -20746.816      38.807249      50.39352       214.83388    
    185300  -20857.089      114.75807     -20742.331      38.788591      50.387835      214.88965    
    185400  -20857.874      115.34743     -20742.526      38.771882      50.389195      214.94543    
    185500  -20857.381      112.22009     -20745.161      38.753409      50.397413      215.0012     
    185600  -20860.331      113.13532     -20747.195      38.736293      50.408649      215.05697    
    185700  -20858.216      111.79979     -20746.416      38.719449      50.414581      215.11274    
    185800  -20858.397      113.21561     -20745.181      38.702104      50.413718      215.16851    
    185900  -20857.441      112.57746     -20744.864      38.683253      50.410323      215.22429    
    186000  -20859.273      114.74427     -20744.528      38.665196      50.406162      215.28006    
    186100  -20858.283      113.13315     -20745.15       38.649151      50.403831      215.33583    
    186200  -20860.277      113.17535     -20747.102      38.631781      50.407635      215.3916     
    186300  -20860.195      111.52341     -20748.672      38.614614      50.418261      215.44738    
    186400  -20858.759      113.31609     -20745.443      38.597568      50.430142      215.50315    
    186500  -20856.576      114.42331     -20742.152      38.580151      50.441441      215.55892    
    186600  -20858.064      115.62122     -20742.443      38.561083      50.451189      215.61469    
    186700  -20855.373      110.47712     -20744.896      38.543553      50.457076      215.67046    
    186800  -20857.91       111.54972     -20746.36       38.525191      50.455257      215.72624    
    186900  -20859.45       113.22745     -20746.223      38.506704      50.452126      215.78201    
    187000  -20859.127      113.76454     -20745.362      38.487572      50.447477      215.83778    
    187100  -20855.195      110.44403     -20744.751      38.467722      50.442617      215.89355    
    187200  -20857.409      112.60346     -20744.806      38.447686      50.441506      215.94932    
    187300  -20858.498      113.45862     -20745.039      38.427626      50.441976      216.0051     
    187400  -20859.399      113.36273     -20746.036      38.407737      50.441244      216.06087    
    187500  -20857.667      110.36229     -20747.305      38.386593      50.441653      216.11664    
    187600  -20861.139      114.15899     -20746.98       38.36468       50.443905      216.17241    
    187700  -20857.314      114.25279     -20743.061      38.344191      50.443835      216.22818    
    187800  -20855.116      113.58937     -20741.527      38.322908      50.443124      216.28396    
    187900  -20858.892      115.38589     -20743.506      38.300392      50.445288      216.33973    
    188000  -20858.495      111.29492     -20747.2        38.278991      50.446395      216.3955     
    188100  -20860.622      113.63878     -20746.983      38.258642      50.4467        216.45127    
    188200  -20858.451      112.66883     -20745.782      38.237197      50.451048      216.50704    
    188300  -20857.915      114.77987     -20743.135      38.215178      50.456871      216.56282    
    188400  -20856.652      116.04329     -20740.609      38.194635      50.462399      216.61859    
    188500  -20859.482      115.91846     -20743.563      38.174303      50.468837      216.67436    
    188600  -20860.146      113.0169      -20747.129      38.153218      50.477059      216.73013    
    188700  -20859.191      112.01043     -20747.181      38.131295      50.484338      216.7859     
    188800  -20861.737      116.91459     -20744.823      38.109645      50.490974      216.84168    
    188900  -20858.027      115.77456     -20742.253      38.088352      50.498218      216.89745    
    189000  -20858.227      115.28007     -20742.947      38.066278      50.505419      216.95322    
    189100  -20860.005      111.68482     -20748.32       38.044058      50.513328      217.00899    
    189200  -20860.391      112.19714     -20748.193      38.021646      50.521625      217.06476    
    189300  -20860.141      114.08549     -20746.055      37.999719      50.531772      217.12054    
    189400  -20860.197      116.52651     -20743.67       37.976104      50.542906      217.17631    
    189500  -20859.183      115.42078     -20743.762      37.952451      50.55702       217.23208    
    189600  -20861.431      113.15062     -20748.28       37.928496      50.571435      217.28785    
    189700  -20861.014      111.63338     -20749.38       37.905902      50.584222      217.34362    
    189800  -20858.114      111.30625     -20746.807      37.882754      50.595773      217.3994     
    189900  -20859.221      114.77193     -20744.449      37.858463      50.606482      217.45517    
    190000  -20859.56       115.30277     -20744.258      37.833652      50.615778      217.51094    
    190100  -20858.986      113.66608     -20745.32       37.808843      50.619486      217.56671    
    190200  -20859.678      113.53381     -20746.144      37.784196      50.623233      217.62248    
    190300  -20858.554      112.423       -20746.131      37.75916       50.626335      217.67826    
    190400  -20860.045      113.53221     -20746.513      37.735264      50.628212      217.73403    
    190500  -20860.544      115.14019     -20745.404      37.710168      50.629517      217.7898     
    190600  -20857.381      115.28177     -20742.099      37.683895      50.632132      217.84557    
    190700  -20858.062      115.98487     -20742.077      37.657874      50.633811      217.90134    
    190800  -20860.413      114.03635     -20746.377      37.632662      50.632814      217.95712    
    190900  -20860.494      112.48245     -20748.012      37.606956      50.629648      218.01289    
    191000  -20859.046      111.71564     -20747.331      37.580363      50.625121      218.06866    
    191100  -20858.274      113.70858     -20744.565      37.552808      50.619269      218.12443    
    191200  -20858.743      116.20508     -20742.538      37.524759      50.613028      218.1802     
    191300  -20858.038      114.72977     -20743.308      37.496784      50.607767      218.23598    
    191400  -20862.235      114.5504      -20747.684      37.469718      50.603914      218.29175    
    191500  -20862.299      113.44686     -20748.852      37.442674      50.602006      218.34752    
    191600  -20860.215      112.73574     -20747.48       37.415061      50.602106      218.40329    
    191700  -20860.63       116.62372     -20744.006      37.388125      50.605049      218.45907    
    191800  -20857.062      113.80473     -20743.257      37.361488      50.609092      218.51484    
    191900  -20860.38       114.88355     -20745.497      37.33536       50.611725      218.57061    
    192000  -20864.742      114.08092     -20750.661      37.309961      50.611805      218.62638    
    192100  -20861.496      111.03466     -20750.461      37.286876      50.612281      218.68215    
    192200  -20861.74       114.2173      -20747.522      37.263412      50.61302       218.73793    
    192300  -20859.716      114.88701     -20744.829      37.239818      50.616075      218.7937     
    192400  -20859.672      114.59862     -20745.073      37.216834      50.620152      218.84947    
    192500  -20863.224      114.52758     -20748.696      37.195387      50.62412       218.90524    
    192600  -20860.852      110.72486     -20750.127      37.173282      50.630321      218.96101    
    192700  -20861.329      112.45592     -20748.873      37.151096      50.639963      219.01679    
    192800  -20859.389      111.9506      -20747.438      37.130281      50.650785      219.07256    
    192900  -20861.777      115.61539     -20746.161      37.110141      50.661358      219.12833    
    193000  -20859.621      114.27138     -20745.35       37.089412      50.674805      219.1841     
    193100  -20859.193      113.73493     -20745.458      37.069773      50.6902        219.23987    
    193200  -20859.448      112.07758     -20747.37       37.051978      50.703164      219.29565    
    193300  -20861.844      112.45781     -20749.386      37.035792      50.718655      219.35142    
    193400  -20863.284      114.24411     -20749.04       37.01887       50.736651      219.40719    
    193500  -20858.795      113.3369      -20745.459      37.004007      50.754863      219.46296    
    193600  -20860.063      116.27135     -20743.792      36.989873      50.772264      219.51873    
    193700  -20858.745      113.5159      -20745.229      36.974455      50.79035       219.57451    
    193800  -20860.662      113.90822     -20746.754      36.959331      50.805641      219.63028    
    193900  -20860.445      113.65367     -20746.791      36.944737      50.81477       219.68605    
    194000  -20859.13       112.36867     -20746.762      36.930797      50.821675      219.74182    
    194100  -20860.693      114.80862     -20745.885      36.914562      50.825223      219.79759    
    194200  -20857.949      113.91056     -20744.039      36.899848      50.82481       219.85337    
    194300  -20857.369      113.84958     -20743.519      36.884562      50.823025      219.90914    
    194400  -20860.772      113.65417     -20747.118      36.870072      50.823952      219.96491    
    194500  -20862.928      113.92188     -20749.007      36.854361      50.826311      220.02068    
    194600  -20862.14       113.08445     -20749.055      36.837921      50.831983      220.07645    
    194700  -20860.845      114.19032     -20746.655      36.821959      50.84114       220.13223    
    194800  -20858.668      116.02105     -20742.647      36.805976      50.847185      220.188      
    194900  -20858.227      114.42348     -20743.803      36.790476      50.848196      220.24377    
    195000  -20860.159      114.53459     -20745.625      36.771976      50.843862      220.29954    
    195100  -20863.158      116.14095     -20747.017      36.752837      50.83459       220.35531    
    195200  -20862.353      114.53592     -20747.817      36.733807      50.817278      220.41109    
    195300  -20860.834      112.67159     -20748.162      36.715086      50.798717      220.46686    
    195400  -20860.236      114.48745     -20745.749      36.694701      50.781736      220.52263    
    195500  -20857.327      114.30447     -20743.022      36.674746      50.766521      220.5784     
    195600  -20859.451      115.45008     -20744.001      36.655854      50.753287      220.63417    
    195700  -20860.303      112.45605     -20747.847      36.636274      50.739526      220.68995    
    195800  -20862.029      113.21558     -20748.813      36.615805      50.725726      220.74572    
    195900  -20861.543      114.10313     -20747.44       36.595397      50.713257      220.80149    
    196000  -20860.478      114.844       -20745.634      36.57576       50.70227       220.85726    
    196100  -20860.06       115.4059      -20744.654      36.557293      50.692583      220.91303    
    196200  -20860.713      117.01258     -20743.7        36.538289      50.685935      220.96881    
    196300  -20857.968      112.05915     -20745.909      36.520265      50.685536      221.02458    
    196400  -20861.388      112.52447     -20748.863      36.501922      50.688083      221.08035    
    196500  -20862.265      112.63464     -20749.63       36.484533      50.694942      221.13612    
    196600  -20861.224      114.03772     -20747.187      36.466393      50.704221      221.19189    
    196700  -20858.719      115.21018     -20743.509      36.448698      50.716225      221.24767    
    196800  -20857.874      114.30219     -20743.572      36.430758      50.730829      221.30344    
    196900  -20859.379      114.20383     -20745.176      36.413669      50.747821      221.35921    
    197000  -20858.564      111.93795     -20746.626      36.396783      50.765138      221.41498    
    197100  -20861.286      113.57283     -20747.714      36.379901      50.783678      221.47075    
    197200  -20860.818      112.54529     -20748.272      36.361663      50.800487      221.52653    
    197300  -20860.048      111.48153     -20748.566      36.343476      50.811958      221.5823     
    197400  -20858.596      111.10143     -20747.495      36.3246        50.819826      221.63807    
    197500  -20861.553      116.31131     -20745.242      36.30593       50.827538      221.69384    
    197600  -20858.701      115.08944     -20743.612      36.28736       50.835184      221.74962    
    197700  -20859.068      114.46678     -20744.601      36.268839      50.845062      221.80539    
    197800  -20860.299      111.03007     -20749.269      36.250323      50.859653      221.86116    
    197900  -20862.206      113.02561     -20749.181      36.232043      50.872275      221.91693    
    198000  -20858.462      111.49844     -20746.963      36.215         50.878412      221.9727     
    198100  -20859.837      115.20379     -20744.633      36.196836      50.88194       222.02848    
    198200  -20858.844      113.87702     -20744.967      36.177998      50.884064      222.08425    
    198300  -20862.629      112.49874     -20750.131      36.160186      50.881316      222.14002    
    198400  -20860.312      109.94548     -20750.366      36.143711      50.877365      222.19579    
    198500  -20860.406      113.51741     -20746.889      36.125956      50.875868      222.25156    
    198600  -20857.567      112.67227     -20744.895      36.109888      50.877851      222.30734    
    198700  -20858.217      113.62488     -20744.592      36.093373      50.881185      222.36311    
    198800  -20860.011      113.90828     -20746.103      36.076714      50.888091      222.41888    
    198900  -20860.501      110.93843     -20749.563      36.059505      50.894366      222.47465    
    199000  -20861.371      111.5891      -20749.782      36.04356       50.896962      222.53042    
    199100  -20861.21       114.24518     -20746.965      36.028696      50.897158      222.5862     
    199200  -20857.617      112.61413     -20745.002      36.012635      50.897673      222.64197    
    199300  -20859.509      115.01794     -20744.491      35.997947      50.90288       222.69774    
    199400  -20860.464      114.2298      -20746.234      35.983219      50.911531      222.75351    
    199500  -20862.777      111.73697     -20751.04       35.971192      50.925781      222.80928    
    199600  -20859.983      110.04758     -20749.935      35.959373      50.945494      222.86506    
    199700  -20860.944      114.39397     -20746.55       35.948578      50.966959      222.92083    
    199800  -20860.363      115.14604     -20745.217      35.93852       50.984501      222.9766     
    199900  -20858.458      112.78918     -20745.669      35.928256      50.997234      223.03237    
    200000  -20861.711      114.22109     -20747.49       35.91733       51.004705      223.08814    
Loop time of 2878.61 on 8 procs for 200000 steps with 2928 atoms

Performance: 6.003 ns/day, 3.998 hours/ns, 69.478 timesteps/s
90.3% CPU use with 8 MPI tasks x 1 OpenMP threads

MPI task timing breakdown:
Section |  min time  |  avg time  |  max time  |%varavg| %total
---------------------------------------------------------------
Pair    | 568.05     | 1211.6     | 2531.9     |2168.4 | 42.09
Neigh   | 3.8199     | 12.915     | 26.024     | 250.8 |  0.45
Comm    | 245.09     | 772.81     | 1822.6     |2056.4 | 26.85
Output  | 0.89186    | 0.89832    | 0.93846    |   1.6 |  0.03
Modify  | 67.874     | 875.37     | 1814.6     |2737.1 | 30.41
Other   |            | 5.064      |            |       |  0.18

Nlocal:            366 ave        1423 max           0 min
Histogram: 5 1 0 0 0 0 0 0 0 2
Nghost:        1731.38 ave        3550 max          75 min
Histogram: 4 0 0 0 0 0 0 0 2 2
Neighs:              0 ave           0 max           0 min
Histogram: 8 0 0 0 0 0 0 0 0 0

Total # of neighbors = 0
Ave neighs/atom = 0
Neighbor list builds = 1268
Dangerous builds = 0
Total wall time: 0:47:59
