ITEM: TIMESTEP
20000
ITEM: NUMBER OF ATOMS
2928
ITEM: BOX BOUNDS pp pp pp
-2.4327446474509024e+01 2.4327446474509024e+01
-2.4279548184849514e+01 2.4279548184849514e+01
-6.1834216000000000e+00 1.1651505760000001e+02
ITEM: ATOMS type x y z f_avestress[1] f_avestress[2] f_avestress[3] f_avestress[4] f_avestress[5] f_avestress[6]
3 -5.27154 -6.49774 -5.27626 173741 -236917 6.61164e+06 167675 8034.07 -65885
3 -2.86847 -7.65532 -5.19042 -160738 117675 6.62955e+06 -174058 -1870.02 -52402
3 -1.46174 -7.68313 -5.19927 -89753.8 49465 6.60698e+06 215625 8375.68 -44154.2
3 1.15327 -7.03105 -5.21972 34121.2 -24335.2 6.64201e+06 -141197 -33907.2 -35602.6
3 2.47217 -6.52078 -5.23588 -139757 159843 6.63286e+06 54978.2 -35057.1 -12313.9
3 -6.4331 -5.61937 -5.22046 -281581 218090 6.63344e+06 54817.3 -5550.72 -56525.3
3 4.78635 -5.09283 -5.30045 115386 -151339 6.5998e+06 -129286 -44645.4 3169.01
3 5.87636 -4.17292 -5.32985 -172013 138471 6.6245e+06 -112847 -24139.9 3105.71
3 -8.04057 -3.50824 -5.11077 172015 -216242 6.70072e+06 -152974 6502.39 -19846.9
3 -8.47067 -2.14003 -5.09174 -27312.3 10142.8 6.67397e+06 275749 18685.1 -30099.7
1 -0.671421 0.0822732 -5.63392 421535 -111797 46901.5 7903.44 420102 -838375
1 0.435534 -0.803935 -5.23486 108855 674459 -524892 -173357 -574869 515603
1 1.63218 -0.165525 -4.82159 -653064 670919 286232 -613465 -433898 236797
1 2.9156 -0.62487 -5.20686 1.07938e+06 -488633 -81214.9 100517 88491.3 -531754
3 7.36473 -1.98315 -5.26988 220742 -279967 6.62937e+06 44779.5 -5356.14 19343.6
3 7.98177 -0.690124 -5.26289 -19963.8 -47371.1 6.60092e+06 -247492 -5231.63 18057.1
3 -4.78103 -6.89499 -3.98135 -262147 204611 6.62236e+06 -90694 10504 -68001.8
3 -5.27331 -6.56989 -2.52732 189559 -222049 6.65568e+06 161561 37453.5 -74227.8
3 -2.84579 -7.56405 -2.59142 -106039 87131.6 6.65516e+06 -184305 6454.56 -40308.6
3 -3.44271 -7.35715 -3.91559 42679.5 -93394.6 6.64653e+06 250204 18469.3 -52588.6
3 -0.778581 -7.58821 -3.86736 -20358.5 174.606 6.62252e+06 -172559 -12735.3 -46130
3 -1.41885 -7.58961 -2.56979 -49677.8 37647.6 6.63434e+06 221000 -12301.5 -33043.6
3 0.5705 -7.19461 -3.87845 -114169 122599 6.64986e+06 135141 -14364.5 -35265.6
3 1.20339 -6.9988 -2.55818 25841.1 -44031.4 6.64788e+06 -139633 6075.13 -18945.4
3 2.55617 -6.49016 -2.59585 -146743 139510 6.66259e+06 60865.2 -2290.94 19268.3
3 3.0243 -6.12821 -3.91769 44211.3 -78980.7 6.64156e+06 -136775 -8527.6 -13145.7
3 -6.84662 -5.2421 -3.87148 250069 -297489 6.65851e+06 3593.47 26169.1 -64053.1
3 -6.4327 -5.68966 -2.5285 -265393 244422 6.6678e+06 43829.4 43862.4 -61119.4
3 4.3122 -5.42793 -3.95602 -176445 154163 6.67321e+06 -27726 -1592.05 12020.5
3 4.83279 -5.08374 -2.59907 106833 -166955 6.68695e+06 -117736 -6196.99 21363.8
3 5.82125 -4.10626 -2.58091 -195155 139628 6.63502e+06 -112646 -10909.7 -1757.24
3 -7.95848 -3.49374 -2.50395 182979 -220827 6.66773e+06 -155685 27122 -50146.7
3 -7.61685 -4.05273 -3.8144 -209312 145703 6.66871e+06 195533 24624.5 -57355.1
3 6.24619 -3.68437 -3.961 184278 -255643 6.64877e+06 -81313 -901.504 1330.31
3 7.1597 -2.54897 -3.95227 -145233 74585.8 6.64945e+06 -211634 10754.3 9802.43
3 -8.52477 -1.4774 -3.78947 45568.5 -83338.8 6.65628e+06 -251859 18048.2 -4936.8
3 -8.4041 -2.13328 -2.45971 -38395.8 -881.203 6.64996e+06 279884 31980.4 -9667.23
3 7.53887 -2.04901 -2.63154 195346 -292197 6.66048e+06 53240.2 4754.14 18514
3 8.05437 -0.700681 -2.62505 -56856.9 -45319.5 6.61674e+06 -251641 -22685.6 15654.5
3 8.20087 -0.101167 -3.90018 162775 -270016 6.62188e+06 193062 -9228.36 13788.9
3 -4.79836 -6.99508 -1.20788 -228432 208745 6.70062e+06 -128316 23805 -40360
3 -3.44996 -7.37855 -1.2424 66387.6 -87480.4 6.66501e+06 217810 7402.9 -34466.9
3 -0.793703 -7.49959 -1.24235 -30324.8 -24574.3 6.653e+06 -166497 -4533.49 -19079.1
3 0.560458 -7.21852 -1.19464 -158274 127028 6.63951e+06 156293 -5691.5 10129
3 3.09251 -6.21045 -1.23825 52599.9 -74140.3 6.62453e+06 -129812 11284.9 48288.8
3 -6.79062 -5.18392 -1.13012 226825 -290440 6.65939e+06 11997.6 41833.1 -47332.5
3 4.3383 -5.49434 -1.26349 -176027 154744 6.68098e+06 -17416.6 -7985.82 48874.1
3 -7.62543 -4.06215 -1.11818 -189535 144503 6.67341e+06 202796 25166.6 -45833.3
3 6.32572 -3.70544 -1.25945 192505 -248929 6.62599e+06 -83303.8 -1170.47 24131.9
3 7.14124 -2.55716 -1.3242 -134409 81031.5 6.62029e+06 -195219 418.715 12823.7
3 -8.40192 -1.48053 -1.13509 37911.4 -95055.7 6.64192e+06 -241994 21704.2 5438.73
2 -0.60282 -0.642019 -0.565433 -654442 613575 303047 690754 156056 -327745
2 1.02097 -2.25178 -0.0898744 320604 -516601 222308 815085 -278465 38335
2 1.5249 -1.24651 -0.991593 -1.01815e+06 785741 -75213.8 -427300 334659 -120290
2 2.93088 -0.775821 -0.78591 -495946 870581 -162412 -504330 -596151 -386688
3 8.15603 -0.118794 -1.286 170353 -204889 6.61398e+06 194679 -10321 3522.25
3 -5.27479 -6.56927 0.150851 195817 -229836 6.69084e+06 136491 25934.1 -34442.2
3 -4.76593 -6.82991 1.50584 -266206 208829 6.68037e+06 -106598 44657.1 -45565
3 -2.87125 -7.43141 0.171007 -119393 91052.4 6.64751e+06 -189205 14653.9 -36293.9
3 -3.42909 -7.32142 1.49654 31040.2 -93426.5 6.68108e+06 238519 40005.9 -52161.9
3 -1.40363 -7.51502 0.113952 -59795.5 50020.1 6.65159e+06 227064 9403.63 -10577.8
3 -0.778554 -7.5517 1.44938 -49153.9 12438.4 6.63685e+06 -167199 25204.4 -34396.2
3 1.16871 -7.06617 0.10143 -2037.77 -22286.8 6.61905e+06 -137321 5743.06 10903.7
3 0.616895 -7.36143 1.46138 -156670 140100 6.61847e+06 155728 25999.9 -21891.9
3 2.48994 -6.58729 0.0926918 -168152 169276 6.61117e+06 45330.2 9938.27 37415.5
3 3.0872 -6.33192 1.43612 63554.6 -47742.4 6.62324e+06 -121322 9449.63 24989.7
3 -6.28926 -5.60242 0.140281 -260230 243536 6.6493e+06 46964.2 34081.6 -21906.1
3 -6.74143 -5.17629 1.51778 225833 -288196 6.6595e+06 7651.27 31316.6 -16738.3
3 4.30856 -5.53163 1.43075 -161190 145327 6.57932e+06 -13539.8 14169.2 21773.7
3 4.82797 -5.18779 0.0851418 126829 -121485 6.63375e+06 -106953 26765.7 48684.8
3 5.93337 -4.24449 0.0719758 -165336 151377 6.62514e+06 -83478.1 36668.7 14406.2
3 -8.25504 -2.07355 0.212176 -40604.1 -41222.6 6.624e+06 267746 19040.9 -32055.2
3 -7.82072 -3.43152 0.172741 184992 -265080 6.64957e+06 -163632 18415.2 -39359.5
3 -7.58308 -4.01337 1.55328 -205125 129230 6.64988e+06 216880 14112.5 -26843.3
2 1.81077 -2.85213 0.921599 454648 380354 -426863 449621 -837740 67387.4
2 3.19827 -2.35838 1.13007 255420 38140 157758 -346412 766766 367457
3 6.38052 -3.78455 1.37015 172963 -252153 6.62106e+06 27741.6 44896 -4078.04
3 7.05135 -2.60137 1.36046 -207117 130204 6.61379e+06 -100053 69874.9 -12900.2
3 7.38307 -2.00367 -0.0202547 218218 -234001 6.60839e+06 60289.9 19932.1 -22138.8
3 -8.27238 -1.4421 1.56331 60639.9 -104990 6.61887e+06 -238668 21037 -45327.7
3 -8.15865 0.0179503 1.52968 123780 -171245 6.70313e+06 214744 23362 -32977.2
2 -0.367063 -1.89898 0.117474 173596 16999.4 -60835.9 -946109 362319 437791
2 -0.933213 -2.03743 1.39967 654325 551138 -1.07256e+06 -418244 103113 181595
2 3.73671 -1.32031 0.242138 689234 -824137 578899 -16022 326854 -25063.5
3 7.9036 -0.68479 0.0259502 -37170.4 8589.28 6.60036e+06 -234693 37930.1 -2670.75
3 7.99388 -0.0740649 1.38404 29178.7 -100425 6.61653e+06 217113 45103.2 -37708.9
3 -5.25715 -6.52533 2.87774 173789 -214022 6.67533e+06 166402 41624.7 -46315.3
3 -2.82679 -7.451 2.81135 -156671 97202.6 6.68483e+06 -183312 37569.9 -55811.8
3 -1.41795 -7.68128 2.78412 -97840.6 55270 6.63792e+06 227828 27472.9 -59379.2
3 1.26088 -7.16788 2.77747 16478 1037.01 6.60457e+06 -133844 39293.1 -20074.4
3 0.651882 -7.44447 4.1153 -187616 151054 6.60384e+06 122098 33275.2 -60318.4
3 2.6 -6.69453 2.79356 -152319 176708 6.61861e+06 48004 8466.29 -6404.4
3 3.0849 -6.36902 4.14629 63455.3 -39655 6.61081e+06 -129713 16456.2 -25598.5
3 -6.29418 -5.54007 2.86975 -267670 219365 6.65451e+06 64047 27021.9 -25762.1
3 4.8346 -5.21671 2.72901 129030 -156039 6.58805e+06 -89763.2 4003.6 23152.5
3 5.90749 -4.21879 2.69467 -188420 102480 6.60521e+06 -40011.4 -19284.6 26506.6
3 4.28802 -5.59701 4.09191 -149864 163722 6.59531e+06 -31471.7 -21026.7 1965.95
3 -8.21882 -2.04515 2.86086 -34582.2 -12358.3 6.62819e+06 272457 18929.3 -46802
3 -7.78204 -3.407 2.86235 189982 -250727 6.66433e+06 -155958 11084.8 -38389.1
2 -0.147734 -2.51785 2.45893 -398720 -22916.5 706019 460801 490344 -425337
2 1.18256 -3.01232 2.19764 -830456 291399 974022 -445876 281558 -146442
2 2.1735 -2.63699 3.23387 863872 165362 -677390 154032 255699 424046
2 3.38915 -2.17433 2.55097 -790041 282282 421264 -84743.4 -844280 -436847
3 7.37244 -2.03287 2.72358 73123.4 -161319 6.64692e+06 174474 -18713.6 7553.79
3 6.23781 -3.71488 4.04249 209332 -199359 6.64299e+06 -4829.91 -45735.1 7680.73
3 7.04274 -2.59132 4.06642 -166004 157579 6.63848e+06 -111593 -71458.7 2234.86
2 -1.8226 -1.05193 1.97421 -263787 -296929 693208 558014 -366654 308261
2 -0.639781 -1.97276 3.69956 266602 268847 -232695 -15702 -787346 600112
2 -1.58454 -0.970063 3.40007 372057 347564 -521008 -121937 629332 -593188
2 4.17274 -1.145 3.15539 -17718.4 -717885 199770 -13315 -316768 -815213
3 7.86748 -0.725706 2.70788 -172075 117255 6.62432e+06 -177067 -41109.9 -3412.22
3 -4.77141 -6.8768 4.11798 -264951 221446 6.65816e+06 -101544 56724.5 -55545.3
3 -5.27641 -6.54202 5.44029 191785 -244723 6.6443e+06 159802 66215.6 -29573.2
3 -2.85003 -7.56144 5.46393 -199663 108018 6.65988e+06 -183341 55746.3 -42441.3
3 -3.44822 -7.39169 4.14431 20444.5 -98066.9 6.67871e+06 252731 38536.4 -50855.8
3 -0.778073 -7.71874 4.1311 -70437.6 13518.4 6.63616e+06 -183220 33138.4 -66480.6
3 -1.41049 -7.73914 5.50545 -130451 49127.5 6.64364e+06 232066 37498.5 -67529
3 1.24835 -7.32916 5.45872 7052.16 -43100.1 6.62468e+06 -145036 12699 -56463.2
3 2.52633 -6.7348 5.44798 -186261 156873 6.63967e+06 48120.1 7291.08 -36648.8
3 -6.79603 -5.17736 4.20409 234382 -287217 6.66458e+06 11050.9 36196.4 -39836.5
3 -6.25321 -5.51286 5.47903 -270673 218546 6.66066e+06 68166 52372.8 -36198.1
3 4.70518 -5.13812 5.35953 134457 -137027 6.64235e+06 -109171 -37834.4 -27146.2
3 5.79154 -4.19999 5.35346 -155644 150095 6.6534e+06 -83282.6 -51313.8 -12781.8
3 -8.25299 -2.03969 5.48949 -26898.2 -12071 6.69165e+06 268133 35592.4 -7929.5
3 -7.85019 -3.40947 5.48579 195231 -237003 6.67908e+06 -154415 43299.9 -653.441
3 -7.52416 -3.97061 4.2073 -200395 143196 6.69254e+06 209093 32117.5 -20641.5
3 7.45796 -2.11178 5.37425 229850 -227035 6.62321e+06 59324.7 -26299.4 11736.3
3 -8.32406 -1.39953 4.13864 51057.3 -109535 6.65292e+06 -245167 30181 -47194.8
3 -8.29467 0.0313999 4.18472 128606 -184172 6.66722e+06 222611 14812.4 -50684.3
2 1.78679 -1.95896 4.36567 865731 -36227.6 -299170 458075 466236 -447929
2 0.338952 -1.74253 4.71361 -291299 272389 308793 -659999 -772265 -23834.3
2 0.327614 -0.391083 5.40131 -443334 322200 169616 630372 698636 48633
2 1.71349 0.116353 5.53067 792249 -302334 -231516 -380308 -411017 -502943
2 2.58778 -0.896155 4.93256 -1.04511e+06 663263 735954 -167289 197194 436741
2 3.80025 -0.486307 4.38114 -80006.4 36907.6 101475 -324068 414287 868727
3 8.04099 -0.803856 5.37419 -36086.7 21584.1 6.63048e+06 -240522 14970.9 13038.7
3 8.14779 -0.156272 4.07499 143983 -111437 6.60681e+06 213388 -26017.5 27055
3 -4.85433 -7.06611 6.77444 -273745 219815 6.65128e+06 -73101.5 76215.3 -9096.52
3 -5.30901 -6.68474 8.16076 174360 -202015 6.64212e+06 178695 76024.9 -10605.2
3 -3.44984 -7.50952 6.81805 21157.8 -78044 6.65781e+06 264648 70258.7 -20169.1
3 -2.83761 -7.77366 8.17297 -176144 139351 6.66372e+06 -168238 58966.3 -27808.4
3 -0.811296 -7.83011 6.78867 -87166.3 20711 6.64786e+06 -194017 31437.6 -52846.6
3 -1.42093 -7.90297 8.18653 -114165 87963.2 6.65373e+06 229030 44858.9 -48969.1
3 0.637594 -7.50328 6.77762 -208867 145264 6.63941e+06 124020 9998.11 -58856.7
3 1.20435 -7.3055 8.11175 12253.6 -29860.2 6.65186e+06 -170169 -14015.1 -69088
3 3.08865 -6.40677 6.70983 64233.2 -71590.7 6.6837e+06 -128951 -21881.7 -36084.8
3 2.52047 -6.67114 8.03851 -181594 155434 6.65403e+06 24564.2 -49383.5 -48214.7
3 -6.59706 -5.04102 6.80456 222977 -311388 6.62377e+06 40132 57148.2 -752.602
3 4.28249 -5.62032 6.70458 -150286 142377 6.6898e+06 -27341 -33113.5 -18078.4
3 4.80132 -5.30272 8.06394 134227 -147477 6.70827e+06 -97596.3 -63944.3 -11021
3 5.77471 -4.26015 8.03865 -154796 130481 6.64496e+06 -78384.3 -57525 -7545.41
3 -7.57545 -4.0133 6.83695 -199555 120502 6.6553e+06 246119 53555.2 -2225.96
3 6.13382 -3.67076 6.65902 182230 -221686 6.66577e+06 -37192 -49116.5 -5587.39
3 7.03346 -2.54188 6.70567 -150886 115195 6.62139e+06 -176692 -19633.8 -4352.57
3 7.43541 -2.09481 8.0274 200575 -279452 6.62083e+06 69926.1 -5707.28 -13238.2
3 -8.23372 -1.42487 6.83323 60638.9 -145037 6.67575e+06 -239856 38373.2 18708.8
3 -8.1252 -0.017556 6.82448 156985 -207239 6.68005e+06 210506 43977.6 8371.61
3 8.24873 -0.207942 6.72687 146931 -209538 6.64493e+06 198510 20123.3 10379.2
3 8.00927 -0.762508 8.03884 -76529.3 -25037.9 6.64586e+06 -244455 10421.4 4082.65
3 -4.67868 -6.93534 9.4992 -260232 239272 6.63037e+06 -54029.7 72387.6 -30021.4
3 -3.40419 -7.50754 9.53019 34103.5 -51050.6 6.63662e+06 271647 58670.2 -37169.7
3 -0.790444 -7.96703 9.50404 -23732.4 62793.3 6.62545e+06 -205937 37369.8 -83192.4
3 0.664217 -7.64501 9.48485 -128453 154803 6.65657e+06 126084 25474.3 -90928.4
3 3.07968 -6.43914 9.4187 92273.2 -52714.9 6.64281e+06 -125235 -56241.4 -64838.5
3 -6.23611 -5.56218 8.15041 -273832 250542 6.61075e+06 100890 70045.6 2358.89
3 -6.6406 -5.06147 9.4505 255479 -282549 6.61619e+06 63623.5 64615.2 -12694.5
3 -7.5725 -3.99778 9.52412 -158365 129631 6.59925e+06 254398 59850 -11850.7
3 4.29889 -5.64072 9.44446 -112294 140113 6.68232e+06 -23531.2 -68912.6 -16560.5
3 -8.14467 -2.05791 8.14586 -799.365 -58660.5 6.66674e+06 268984 42132 20834
3 -7.83556 -3.42182 8.14827 231582 -278926 6.63896e+06 -128835 48509.5 17387.2
1 -3.11628 -2.68931 9.70694 629147 -336594 83989.3 -688738 440290 429676
1 -1.83947 -2.49262 8.91721 170261 161596 -51187.6 820003 -508976 143467
1 -0.700193 -3.04004 9.53903 444475 381052 -805574 338355 -433755 -298759
1 0.470595 -2.22742 9.59525 71836.1 -89864 309392 -298525 658365 647943
3 6.30798 -3.83116 9.37234 196667 -235362 6.63134e+06 -47152.3 -35732.1 4624.85
3 7.16644 -2.70941 9.37218 -155448 95946.1 6.61863e+06 -160930 -8118.23 -6374.22
3 -8.15468 -1.38242 9.47445 119407 -148841 6.6091e+06 -232845 20074.1 38627.9
3 -8.23498 0.0410468 9.46871 191881 -214435 6.65947e+06 204733 26382.8 43360.6
1 -3.83495 -1.47396 9.6834 -753804 862355 299905 209065 -186038 -280873
1 -3.09095 -0.484916 8.96825 951927 -750222 18102.7 286304 -58744.3 479890
1 -1.82969 -1.09259 8.53197 -552282 393923 375622 -751947 277175 -126375
1 -0.614445 -0.302027 8.59878 126511 117118 -95932.4 -541051 -170869 -738062
1 0.549726 -0.912185 9.16366 424702 -631108 566638 369983 184362 562199
1 1.31086 0.131908 9.93459 -90764.2 1.05727e+06 -663146 -111712 -442505 -72329.2
3 8.15506 -0.173153 9.38224 126518 -188297 6.63787e+06 203128 246.979 -15078.3
3 -5.28543 -6.65885 10.8651 166695 -228591 6.58421e+06 168096 39475.8 -29417.1
3 -4.71405 -6.94208 12.1707 -234099 204506 6.58635e+06 -91713.1 27534.7 -12846.2
3 -2.82444 -7.72916 10.8275 -141080 85696.6 6.63913e+06 -201846 31300.4 -52904.2
3 -3.43388 -7.47323 12.2347 78266.9 -116056 6.62609e+06 218924 31447.7 -20086.3
3 -1.41766 -7.9317 10.8222 -56777.7 -1740.01 6.60865e+06 240248 40534 -96519
3 -0.707802 -7.83116 12.2785 39615.3 -110105 6.63852e+06 -179711 3339.31 -31126.2
3 1.24577 -7.35407 10.8501 106674 -117555 6.66643e+06 -102826 2430.25 -112403
3 0.698713 -7.63386 12.1992 -102155 39684 6.68759e+06 170952 13150.6 -46575.2
3 2.56854 -6.75775 10.7975 -119366 159771 6.65112e+06 97264.8 -7591.29 -71277.4
3 3.19778 -6.48318 12.1072 61711.3 -96742.3 6.64416e+06 -87017.8 10239.5 -14421.2
3 -6.32837 -5.65341 10.8208 -280619 242915 6.58889e+06 93192.3 43682.6 -37635.1
3 -6.79625 -5.2112 12.1564 250147 -302086 6.57254e+06 45870 29856 -41360.4
3 -7.542 -3.99665 12.1694 -175524 113938 6.55597e+06 230641 21328.8 -42814.4
1 -1.97704 -4.2232 11.2272 -910693 -186203 716384 311707 18892.3 -43572.8
3 4.90523 -5.33583 10.7282 152396 -142917 6.66555e+06 -109291 -39145.9 -8955.34
3 5.9969 -4.39524 10.7376 -121925 128725 6.6208e+06 -80793 -27565.9 -1729.1
3 4.34568 -5.66425 12.0451 -108834 141000 6.67928e+06 -27841.6 -7539.89 -21362.2
3 -8.17082 -2.04883 10.8064 -17799.9 -65258.4 6.55961e+06 280817 3588.32 7874.89
3 -7.85474 -3.44759 10.8678 234764 -290751 6.57865e+06 -129234 35664.1 -2769.57
1 -3.18177 -3.61939 10.78 593069 196045 -759287 -155906 423356 -48496.9
1 -4.02776 -3.20865 11.9795 -187522 62965.2 368947 208065 -719189 333744
1 -0.699641 -3.97937 10.5706 -658588 -509278 794082 -661210 14670 -27100.9
1 1.11279 -2.59233 10.8149 2926.5 -73590.5 382733 -310208 -628414 -718908
1 0.528736 -3.81262 11.3571 565927 413148 -832421 318090 365672 271098
3 7.46432 -2.1863 10.6818 212403 -255419 6.60707e+06 84968.7 2761.38 -18355.1
3 6.37339 -3.9388 12.0745 202126 -246649 6.62615e+06 -52337.6 -6627.8 -1060.18
3 7.19383 -2.77205 12.0397 -154364 94214.3 6.59979e+06 -159170 9914.09 -17590.3
1 -4.63157 -1.09303 10.7638 5755.83 696107 -109525 470115 261034 -707115
1 -4.71904 -1.96481 11.9741 568159 -827453 694810 -16948.6 -297489 404190
1 2.02348 -0.295765 11.0654 -29390.1 1.04841e+06 -708390 -155351 463736 142442
1 1.98382 -1.73221 11.4467 331502 -686079 485434 368885 -152092 -630212
3 8.00089 -0.880852 10.7424 -72061.4 3771.04 6.61311e+06 -224294 1345.32 -14837
3 8.17911 -0.304116 12.0703 113644 -210012 6.60638e+06 208850 4426.65 -24144.4
3 -5.2831 -6.55351 13.5006 169229 -205371 6.56794e+06 166951 2556.05 508.203
3 -2.86206 -7.75801 13.5547 -109755 90686.1 6.62299e+06 -198932 30823.2 6840.31
3 -1.42458 -7.89589 13.5892 -30091.3 1918.68 6.66494e+06 241431 15225.8 24009.2
3 1.33097 -7.41331 13.4612 48114.5 -108590 6.66006e+06 -141025 29271.3 23677
3 2.63471 -6.80404 13.5053 -167391 149478 6.68998e+06 54695.4 22752 18374.8
3 -6.3956 -5.66999 13.5109 -269693 256422 6.59984e+06 92013.9 4246.45 -21173.3
1 -2.04768 -4.22643 12.7033 583917 230378 -668599 -117941 -479892 100589
3 4.92007 -5.38026 13.4296 132364 -158177 6.6665e+06 -134704 23855.5 -7616.05
3 6.02449 -4.47821 13.3781 -148937 107313 6.63561e+06 -98297.8 17321.8 -4227.91
3 -8.07542 -2.01591 13.4578 2698.32 -51017.9 6.57034e+06 287587 34888.4 -62545.9
3 -7.77761 -3.44884 13.524 206671 -275502 6.59218e+06 -129795 20256.6 -61600.1
1 -3.32765 -2.85835 14.2343 469447 -896770 635860 -33704.4 278282 -401436
1 -3.27968 -3.65019 13.1463 -166055 47868.9 306391 192511 712291 -356290
1 -0.800266 -4.01567 13.3833 632694 -265674 138234 -693231 -435250 -377452
1 0.5176 -3.88305 12.777 271425 193255 -80948 780021 474573 -203096
1 1.26952 -2.81822 13.4816 -662828 383230 384104 -782755 -224478 151376
3 7.51803 -2.21339 13.4201 204301 -279228 6.60996e+06 78009.5 7493.23 -9456.35
3 -8.11089 -1.35858 12.1311 27484.7 -89803.6 6.58943e+06 -243710 22039.3 -25340.6
3 -8.17314 0.056713 12.2079 81435 -163973 6.63533e+06 235176 9797.18 -3673.18
1 -4.70435 -1.20843 13.1667 -52884.1 977510 -632778 -77642.2 442352 121948
1 -4.03546 -1.62297 14.2981 -170955 853472 -614957 -54113.5 -463306 -88619.8
1 1.94517 -0.432694 13.3854 -200161 455514 -265695 489291 282198 -587726
1 1.98797 -1.76454 12.8879 37112.4 16383.1 -317850 -559757 138908 764022
3 8.0822 -0.92797 13.4007 -72855.7 -2164.79 6.60343e+06 -234674 10690.7 -16349.5
3 -4.72939 -6.85999 14.8713 -267603 254569 6.58473e+06 -50722 -16936.8 -31988.5
3 -5.20064 -6.49221 16.1617 159013 -210682 6.61917e+06 195336 -20740.5 -43728.2
3 -2.77878 -7.57365 16.1374 -206816 138560 6.64038e+06 -173729 -1421.27 -56977.9
3 -3.4654 -7.40485 14.8428 22209.3 -54466.5 6.64127e+06 251405 706.856 -36671
3 -1.3396 -7.62556 16.159 -139508 81739.2 6.69386e+06 231424 16800.6 -29186.3
3 -0.765657 -7.66138 14.8452 -64705.8 56165.8 6.68074e+06 -212317 29967.2 -746.387
3 0.69207 -7.56885 14.81 -187353 173492 6.69564e+06 119602 36466.5 6714.13
3 1.32772 -7.27704 16.1114 15843.9 -40957.2 6.70001e+06 -178144 57575.7 -391.144
3 3.25558 -6.57771 14.7901 60952 -70710.8 6.70643e+06 -148677 48286.3 16594.9
3 2.68873 -6.81736 16.1683 -174064 145815 6.72034e+06 23697.9 64712.4 5822.27
3 -6.78269 -5.22946 14.8269 263052 -291026 6.60411e+06 54892.9 -7769.43 -45137.8
3 -6.34383 -5.69991 16.1524 -287555 225002 6.64957e+06 96956.2 -25718.3 -35954.9
3 -7.51551 -3.99496 14.8596 -159260 128742 6.63488e+06 243010 -8772.58 -51401.7
3 4.49165 -5.7922 14.7445 -137705 116927 6.68982e+06 -50514.3 45931.2 7876.48
3 4.9572 -5.38495 16.1064 92830.8 -148955 6.70401e+06 -110436 56405 6513.17
3 6.08096 -4.47642 16.1119 -175105 109611 6.68052e+06 -79797 43815.6 17259.2
3 -8.10759 -2.01099 16.1843 -4014.87 -84947.3 6.60866e+06 288056 -16138 -50325.4
3 -7.71201 -3.40702 16.1697 207817 -304547 6.63921e+06 -124719 -13094.1 -42911.4
1 -2.04352 -2.60894 14.9853 -52314.4 615747 -88029.4 511541 -283021 689389
1 -0.817375 -3.24073 14.5738 -765409 906227 289276 248457 226389 294154
1 0.394908 -2.48043 14.6422 852110 -537045 46348.7 282125 13489.1 -481790
3 6.43981 -4.01398 14.731 169214 -240736 6.63926e+06 -59278 22441.1 -6927.89
3 7.39156 -2.86436 14.7266 -171547 87675.4 6.62792e+06 -176122 6130.95 13888.6
3 7.63526 -2.2489 16.0869 190140 -260532 6.64017e+06 84864.1 -2105.46 10166.7
3 -8.1584 -1.36949 14.8763 98978 -131835 6.58862e+06 -240287 1727.9 -52600.8
3 -8.09677 0.0489649 14.85 168450 -194981 6.67401e+06 206769 7440.14 -55036.1
1 -3.25682 -0.662709 15.0806 233574 -866467 458492 397662 194980 614310
1 -2.04273 -1.27481 15.5446 133887 220614 -75041.1 -483979 -219516 -734380
1 -0.884821 -0.547941 15.6163 -555705 492457 360581 -714228 209903 -154537
1 0.366589 -1.16096 15.1215 900278 -566464 -23978.9 319921 -104486 442725
3 8.11638 -0.895983 16.0664 -65447.2 12002 6.61764e+06 -239872 -4658.86 -25516.2
3 8.26852 -0.281939 14.7015 124261 -199300 6.61328e+06 220510 3472.91 -24040
3 -4.77247 -6.93934 17.4725 -303004 212872 6.62281e+06 -55614.2 -9652.22 -38541
3 -3.44989 -7.48494 17.505 -13136.7 -87482.2 6.63715e+06 256053 -4339.47 -60759.9
3 -0.706501 -7.61387 17.4836 -87471.8 10017.1 6.71897e+06 -208289 6238.88 -20579.9
3 0.696823 -7.48998 17.4677 -228256 156083 6.68587e+06 135489 32762.5 -10607.9
3 3.26424 -6.51142 17.4783 68490.2 -79261.1 6.7491e+06 -119001 64066.9 24340.6
3 -6.75529 -5.17841 17.4828 236199 -324911 6.64962e+06 33394.4 -13930.1 -30483
3 -7.57239 -3.99383 17.4791 -194839 111489 6.64863e+06 228845 -15889.6 -31124.5
3 4.48574 -5.82928 17.4149 -152494 132201 6.74068e+06 -32009.9 65968.4 37278.3
3 6.47524 -3.96678 17.4329 177854 -220496 6.70166e+06 -59957.1 28585.8 13714.1
3 7.25856 -2.7667 17.3722 -144506 110765 6.6386e+06 -180699 6359.22 12816.5
3 -8.13696 -1.40959 17.5357 68845.8 -162648 6.61142e+06 -241199 -18838.2 -72848.4
3 -8.04825 0.0178361 17.5459 133453 -240667 6.63454e+06 210861 -18443.4 -67593.3
3 8.29952 -0.299622 17.4005 155092 -184340 6.61387e+06 199641 -8642.76 -30591.4
3 -5.251 -6.53157 18.8524 162093 -232923 6.62023e+06 167100 -6498.7 -36247.4
3 -4.71041 -6.82437 20.1411 -262628 213744 6.64573e+06 -83208.4 -12008.6 -11706.9
3 -2.77602 -7.47044 18.8146 -162681 120187 6.66297e+06 -185029 -22397.4 -35399.5
3 -3.35007 -7.25353 20.1474 47094.1 -105350 6.66836e+06 240854 -23648 -7369.3
3 -1.32454 -7.58237 18.8043 -82456.6 40889.5 6.687e+06 236758 -1773.12 -17228.5
3 -0.680267 -7.3612 20.1486 -44581.8 4891.46 6.67494e+06 -194391 7895.67 -22559
3 1.31306 -7.18807 18.8061 24235 -56917.3 6.67077e+06 -157045 19567.9 7744.94
3 0.714743 -7.34259 20.157 -180354 159906 6.66788e+06 153607 17306.3 -5305.23
3 2.67049 -6.68783 18.7863 -193108 164643 6.69655e+06 30335.5 21699.7 15724.4
3 3.20197 -6.43597 20.1065 80866.9 -30046 6.68835e+06 -120528 1858.23 10009.1
3 -6.75232 -5.17259 20.1702 230111 -287575 6.65785e+06 1917.46 10498.8 -28400.2
3 -6.3609 -5.67413 18.7877 -291614 218942 6.65128e+06 70674.9 -14148.3 -20810.1
3 -7.53549 -4.02794 20.1799 -204693 147339 6.65315e+06 205729 4631.23 -11424.5
3 4.53159 -5.87658 20.1249 -130780 147727 6.65635e+06 -28933.7 31286.7 -763.098
3 5.04657 -5.4679 18.7684 114961 -109730 6.71393e+06 -101554 57329.9 31528.9
3 6.14166 -4.48745 18.7603 -142538 159462 6.70016e+06 -87505.9 40486.2 24508.1
3 -8.10513 -2.0514 18.8613 -35040.9 -35042.4 6.63228e+06 275612 -16065.9 -36338.3
3 -7.83692 -3.41189 18.8616 201136 -262187 6.64042e+06 -148087 -8607.57 -26648.6
2 1.32221 -2.2605 19.5278 17601.9 609939 -292208 -169246 742834 -485231
3 6.5199 -4.01214 20.0681 200791 -169114 6.67458e+06 331.271 55847 -17658.3
3 7.36624 -2.84158 20.0732 -152523 151931 6.62619e+06 -107175 67168 -28241
3 7.62662 -2.25496 18.7158 226470 -222505 6.6297e+06 79032.9 23121.4 -11547.6
3 -8.10348 -1.40024 20.1919 57228.7 -118793 6.60928e+06 -249191 -10215.4 -17954.2
3 -8.1107 0.0512039 20.1976 126846 -193871 6.59968e+06 211045 9031.96 -25601.3
2 0.123841 -1.50326 19.0861 514883 24077.8 -217744 -19858.5 -522426 771850
2 0.31147 -0.206874 18.4827 367083 -563220 390986 -662244 -103935 415709
2 2.7269 -0.391214 18.5308 -301138 206438 -132891 852122 -515461 97511.6
2 2.5545 -1.69395 19.2052 -371176 278461 317167 -792995 438397 -97766.1
2 3.65134 -1.80572 20.1324 941453 -322633 -242964 452828 -258110 646734
2 4.45244 -0.62241 20.0658 -907191 867990 335533 8318.96 -385644 -396241
3 8.11467 -0.902635 18.7457 -24886.2 33557.7 6.61912e+06 -240316 29884.3 -24078.9
3 8.2531 -0.279336 20.0714 123887 -97861.7 6.63295e+06 223224 49349.4 -68237.1
3 -5.18276 -6.40947 21.5095 183110 -229533 6.66596e+06 152393 -2667.13 -14194.1
3 -2.67793 -7.25983 21.4685 -174944 110908 6.64496e+06 -181587 194.4 -5420.46
3 -1.26095 -7.32568 21.4557 -102796 47293.1 6.65526e+06 236705 2698.67 -14929.9
3 1.37834 -7.27906 21.4781 16337.9 -30479.1 6.67309e+06 -151213 6256.09 -21055.7
3 2.71598 -6.82377 21.43 -175915 169850 6.70181e+06 45295.5 5001.27 -24626.4
3 -6.31014 -5.55073 21.5325 -262251 229915 6.65328e+06 57007.8 13047.3 -12851.3
3 5.06854 -5.51551 21.4313 126893 -167661 6.70994e+06 -37538.5 -7511.41 -19765.2
3 6.16458 -4.60891 21.3914 -199890 113111 6.66536e+06 10025.3 11157.5 -20533.4
3 -8.08635 -2.0271 21.5269 -25172.6 -30057.5 6.60326e+06 276675 11006.4 -8129.07
3 -7.9082 -3.44117 21.5349 183976 -249509 6.62658e+06 -153841 16337.8 -3758.47
2 -0.249789 -2.52834 21.1537 598861 654185 -964052 -440273 58153 142921
2 1.05655 -2.88577 20.752 -192805 -228629 773046 550782 -518946 256457
2 2.09098 -2.95843 21.7293 -634094 238843 805119 -313165 -545960 -91792.7
2 3.37342 -2.42127 21.3596 732118 314340 -977567 198950 -39934.1 -77169.3
3 7.60143 -2.26286 21.4496 96349.9 -182466 6.67504e+06 203836 3964.41 -53516.6
2 -0.889414 -1.704 20.1624 -300079 -83667.6 715375 469375 339203 -564423
2 -1.60147 -0.574628 20.5883 242490 -625787 733972 -290634 18509.6 -638098
2 -1.87461 -0.303511 21.9877 345197 149877 -229100 256365 407.397 1.01076e+06
2 4.95815 -0.0833217 21.236 -69124.9 552763 -412320 -107996 -408590 -810360
2 4.8365 -0.763881 22.5176 -61365 -1.10593e+06 678270 -181717 209070 479964
3 8.05762 -0.89378 21.4566 -174146 130763 6.62976e+06 -187279 30864.5 -52001.5
3 -4.6016 -6.69346 22.8944 -267767 201663 6.69512e+06 -86656.1 -2676.4 -17285.1
3 -5.10415 -6.38878 24.2253 174847 -228129 6.68078e+06 166693 2292.9 -9408.43
3 -2.66845 -7.19621 24.2409 -215785 114003 6.63132e+06 -184616 33053.2 -8281.86
3 -3.27491 -7.21522 22.8833 34914.1 -95512.1 6.6567e+06 257105 15086.6 -11192
3 -0.635423 -7.42689 22.8204 -88295.7 -1325.78 6.65563e+06 -193753 19081 -23984.5
3 -1.22944 -7.3597 24.2467 -157078 59523.6 6.64788e+06 234660 15823.1 -18947.4
3 0.814304 -7.33961 22.81 -231461 159149 6.67328e+06 135629 -4770.96 -31277.9
3 1.42959 -7.33616 24.1655 3573.7 -43474.9 6.71633e+06 -162845 -32255.3 -55598.1
3 2.75973 -6.83632 24.1531 -196727 170068 6.76013e+06 23813.4 -23076.7 -89777
3 3.29696 -6.56311 22.7866 54687.7 -35589.8 6.75605e+06 -124661 -21730.1 -64135.9
3 -6.78774 -5.20287 22.8991 222190 -293313 6.65721e+06 15576.4 6997.36 1057.86
3 -6.27423 -5.64749 24.2304 -283645 214981 6.6603e+06 66413 9689.36 5462.33
3 4.61676 -5.99913 22.756 -134982 146042 6.73652e+06 -32864.4 -21031.2 -38610.2
3 5.16305 -5.53746 24.1147 139955 -85306.4 6.7836e+06 -80429.3 -53452.7 -74081.4
3 6.22813 -4.60348 24.1072 -130871 175466 6.70189e+06 -62061.2 -71559.9 -59684.3
3 -8.03217 -2.01097 24.2357 -20342.9 -32729.7 6.59539e+06 269552 28645.3 3179.09
3 -7.66259 -4.0711 22.9189 -208501 132215 6.61293e+06 219489 34288 -7897.48
3 -7.77708 -3.43919 24.2454 200731 -255480 6.5993e+06 -145004 17123.8 3024.06
2 -0.456124 -2.24392 22.5047 304899 269958 -332913 -757500 -400754 -495273
2 1.88322 -2.80019 23.1696 214214 388866 -205368 155408 937845 135541
2 0.591225 -2.39833 23.5298 319692 -480758 400713 707848 509604 -175448
2 3.05569 -2.1467 23.6883 411001 239990 -314254 -39927.6 -661280 -355404
3 7.7788 -2.33714 24.1083 238617 -207054 6.65116e+06 82867.5 -35736.2 -61535.7
3 7.34985 -2.87321 22.7363 -154779 152658 6.65058e+06 -96509.9 -84575.5 -49041.1
3 6.64193 -4.11457 22.7265 175713 -172701 6.70817e+06 34651.3 -67054.1 -15608.6
3 -8.06893 -1.38753 22.8945 54979.7 -125346 6.5941e+06 -267167 15261.2 2530.3
3 -8.12846 0.0625309 22.8617 113466 -195945 6.59137e+06 207094 6129.19 540.74
2 -1.33713 -1.15978 22.9254 -590389 277188 239286 679196 -219781 477528
2 -0.789447 -0.61904 24.198 617605 -1.01e+06 -189035 -240520 286036 -468373
2 3.9846 -1.93051 22.5989 -926651 -32476 620527 -266338 495742 227844
3 8.34027 -1.01345 24.1367 -34286.9 63079.5 6.62743e+06 -226900 -3337.84 -80650.1
3 8.34364 -0.320032 22.7845 84417.4 -79984.7 6.63917e+06 221829 -8317.12 -55118
3 -4.57037 -6.72083 25.6006 -300756 216504 6.65422e+06 -67577.6 43105.2 -16030
3 -3.23706 -7.1413 25.6098 18519.2 -90050.5 6.64617e+06 254748 45282 -9169.11
3 -0.617945 -7.5383 25.5766 -60944.1 7519.9 6.67447e+06 -199872 -15405.5 -20123.8
3 0.854843 -7.46465 25.5422 -186571 156931 6.7347e+06 135588 -32234.5 -39086.4
3 3.34246 -6.5961 25.5172 47120.6 -73216.1 6.80856e+06 -124236 -56915.8 -99831.1
3 -6.70323 -5.22446 25.5822 244209 -289705 6.63856e+06 18552 9571.84 13359.3
3 4.65912 -5.95656 25.4874 -164275 149011 6.78332e+06 -29125.8 -71060.5 -96591.4