ITEM: TIMESTEP
80000
ITEM: NUMBER OF ATOMS
2928
ITEM: BOX BOUNDS pp pp pp
-2.2172068825365649e+01 2.2172068825365649e+01
-2.2031721169069602e+01 2.2031721169069602e+01
-2.2915032400000001e+01 1.3324666840000000e+02
ITEM: ATOMS type x y z f_avestress[1] f_avestress[2] f_avestress[3] f_avestress[4] f_avestress[5] f_avestress[6]
3 -2.58278 -8.43796 -22.3785 -55564.4 -54619.1 -254773 245548 233970 -4818.41
3 -1.93816 -8.65034 -21.1559 -226272 166598 -285441 -184586 195300 -78630.3
3 -0.551335 -8.87697 -21.111 -160204 76206.1 -342266 213690 222093 70532.7
3 0.233642 -8.91533 -22.2569 -116478 9402.41 -417184 -274067 140201 5778.95
3 1.60968 -8.59822 -22.1684 -294572 180479 -505954 83415.7 112663 123876
3 2.17078 -8.31758 -20.8992 77677.9 -140969 -496929 -239024 66711.2 49170.6
3 -4.56994 -7.59617 -21.1804 67414 -157099 -26556.4 174595 160588 -92533.8
3 -5.66196 -6.7192 -21.1367 -232558 173276 144100 74209.9 105663 -102327
3 -3.85004 -7.84967 -22.3669 -285036 211851 -16927.5 -43763 159003 -114813
3 4.0321 -7.27878 -21.9751 131603 -271504 -696225 -184044 -57109.4 24964.9
3 4.92645 -6.18871 -21.8387 -252955 123200 -703226 -216119 -16242 -2890.66
3 -6.97144 -5.02261 -22.261 -134175 113644 378623 140991 35401.2 -27334.2
3 -7.39992 -4.48684 -21.0536 181506 -187047 357509 -13466.9 -4649.49 -44650.8
3 -6.10171 -6.09303 -22.3017 160990 -210884 242839 89036.1 60760.8 -78604.3
3 6.01809 -4.25238 -22.863 -93097.5 -28176.7 -671623 -258942 -2685.45 -28172.1
3 -8.29442 -2.52837 -22.1299 158709 -154576 539288 -101684 -45268.5 21928.6
3 -8.1184 -3.26143 -20.9548 -65752.6 59902.4 486445 155232 8933.81 8157.39
1 -2.15026 -3.34889 -22.686 -57312.6 644387 -169827 -220688 -926764 344150
1 -2.21446 -2.57933 -21.4596 -76453.8 -139882 641549 637110 643974 -166425
1 -0.891218 -4.07833 -22.6919 880570 24176.3 -518358 49400.6 641657 -632631
1 -0.187278 -3.75573 -21.4714 -765544 357707 763007 410442 -202410 365984
1 1.97596 -3.7787 -22.6607 728573 29712.9 -269502 9614.66 -608337 -748811
1 1.21096 -3.61794 -21.4446 -475562 208184 741425 -525558 330549 532182
1 3.04255 -2.79485 -22.6464 87810.8 735493 -360213 140419 823684 546116
3 6.28498 -3.71402 -21.5891 198638 -307967 -663503 71200.3 880.628 -30115.6
3 6.62727 -2.35901 -21.4131 31058.9 -150924 -593848 -208209 45829.7 -18842.7
3 -8.81157 -1.23342 -22.0467 10624.5 -7978.62 606114 174738 -7375.24 66494.4
1 -3.29643 -0.709436 -22.658 60740.7 697950 -343439 -367838 -424271 -814802
1 -2.79317 -1.29593 -21.4371 540850 -884923 719320 52721.3 310542 379399
1 2.94806 -2.04621 -21.4138 54123.1 -379657 826092 -627185 -477151 -167269
1 3.24522 -0.673236 -21.3837 400566 -797357 792164 247119 -329257 340135
3 6.85542 -1.55553 -22.5233 112198 -211392 -541991 143842 11011.4 39163
3 6.87432 -0.178724 -22.3646 33614.6 -185767 -447566 -149306 25020.3 43754.7
3 -2.63619 -8.44771 -19.9507 -20746.7 -74383.4 -254597 221221 230467 -34866.1
3 0.0604592 -8.78441 -19.8489 -64871.8 8690.42 -333524 -257459 158664 -12770.5
3 1.44618 -8.54853 -19.7205 -233960 175432 -412355 135455 150225 102525
3 -6.24273 -6.28622 -19.9092 145583 -191345 121779 72580.8 80642.8 -105181
3 -3.94301 -7.95193 -19.9691 -264895 197452 -99919.4 -54407.4 165902 -125939
3 3.42583 -7.74735 -20.8219 -279013 199914 -604932 -40019.4 29897.7 87463.4
3 3.95858 -7.41412 -19.557 202707 -235442 -578099 -102828 -9722.26 23190.2
3 4.8929 -6.40202 -19.4508 -199502 145012 -642174 -141150 9303.71 27674.4
3 -7.042 -5.11868 -19.8499 -149953 119127 281012 115398 52837.2 -55223.8
3 5.36068 -5.76953 -20.5847 214748 -313953 -688856 -24724.2 -32408.3 -21131.4
3 5.96888 -4.51935 -20.4868 -85882.7 -9528.58 -657825 -231350 29085.6 -43511.7
3 -8.43796 -2.63032 -19.7602 139744 -186882 486591 -75032.8 -28236.6 -8309.81
1 -1.00803 -2.84486 -20.7125 774202 178039 -746359 -555766 -432776 -510188
1 1.81949 -2.5549 -20.6744 664532 516477 -814290 557752 359118 -422299
3 6.12029 -3.95202 -19.2069 153214 -239315 -650578 115813 19638.8 -36578
3 6.46671 -2.62298 -19.0747 6777.21 -88434.3 -598711 -200342 45371.1 -21009.8
3 -9.09445 -0.566048 -20.8317 100800 -109419 634851 -160149 -59325.2 36097.6
3 -9.00865 -1.33791 -19.6951 -14585.2 -31671.8 615434 192785 -342.181 20066.7
1 -2.1813 -0.239738 -20.6599 -227003 1.00395e+06 -683745 310008 -712816 207760
1 -0.40681 -1.82212 -19.9722 473832 -722264 158246 -897522 -102853 -141561
1 -0.985912 -0.50844 -19.9895 -1.20238e+06 763456 -113827 447709 -47497.9 39604.9
1 1.02827 -1.67632 -19.9236 100920 -73521.1 251245 1.09423e+06 132182 -156679
1 1.33029 -0.260278 -19.8902 -754208 755786 256227 -785158 152803 118275
3 6.64391 -1.77556 -20.1488 112886 -245844 -571184 149648 43209.2 -5236.75
3 6.68291 -0.369643 -20.0296 83836.8 -229496 -472708 -153190 46954.4 9975.86
3 -2.7959 -8.6285 -17.5033 9599.67 -96747 -228591 200036 205615 -41934.1
3 -2.06183 -8.72883 -18.6741 -202290 148782 -252774 -183560 168111 -73429.9
3 -0.659249 -8.89692 -18.6299 -118692 51623 -299326 231319 201832 40520.8
3 -0.0323468 -8.93907 -17.3485 -55260.4 14331.6 -293804 -258096 143476 -17597.2
3 1.36999 -8.74059 -17.2975 -224183 177956 -351353 145758 151539 87929.7
3 2.04327 -8.40811 -18.4591 111634 -144566 -388122 -205758 97285.2 36949.1
3 -6.26282 -6.26602 -17.5359 103200 -182966 19052.9 86760.9 103075 -96204.2
3 -5.76429 -6.81581 -18.7337 -227189 170125 41329.5 42245 124760 -115423
3 -4.63752 -7.65464 -18.7713 68967 -153810 -108473 139296 168838 -102521
3 -4.09153 -8.05485 -17.5101 -253344 186088 -132361 -52313.6 156861 -105450
3 3.32347 -7.8887 -18.3992 -254165 220543 -485036 -1156.93 58742.5 92150.5
3 3.90632 -7.61695 -17.2004 208312 -231583 -469968 -93617.3 24953.5 29124.9
3 4.94678 -6.70074 -17.0662 -207123 159124 -572325 -135061 12473 31644.9
3 -7.40148 -4.53744 -18.652 142667 -187333 258746 -741.57 18601.3 -51440.6
3 -7.10049 -5.18696 -17.4581 -174770 119789 179911 136947 77848.2 -64443.7
3 5.2905 -5.96811 -18.1992 215071 -253008 -628005 39105.5 -509.872 -13453.9
3 5.91735 -4.76407 -18.0833 -98215.1 39507.8 -636501 -179758 15309.7 -14526.9
3 6.27019 -4.26546 -16.8531 137148 -216621 -621511 119053 9103.92 -17594.8
3 -8.13829 -3.32933 -18.5744 -85448.1 57785.5 435623 161565 31168.2 -611.559
3 -8.49993 -2.74409 -17.3593 162012 -201959 420248 -56274.2 -5503.24 -6973.07
3 6.56034 -2.07179 -17.8034 70201.7 -168809 -567755 151853 18390.1 -23610.3
3 -9.10667 -0.689823 -18.4411 107584 -169643 608552 -161976 -26506.8 13117
3 -8.93088 -1.43009 -17.2968 6126.81 -37219.4 569476 197330 32141.4 21910
3 6.4326 -0.675575 -17.678 71525.6 -155412 -477442 -160365 28563.6 -20689.3
3 -2.14786 -8.93733 -16.2811 -219035 148656 -215514 -179059 152772 -53901.4
3 -2.83385 -8.75572 -15.0691 -25216.8 -107669 -219822 211189 158483 -30575.4
3 -0.753837 -8.99582 -16.1956 -123632 39983.9 -289249 232106 173145 21966.1
3 -0.0694444 -9.04173 -15.0065 -111548 13271.5 -271353 -287496 118040 -15339.9
3 1.34944 -9.00471 -14.9345 -266284 165195 -299091 127907 115781 78502.7
3 2.07814 -8.7506 -16.0912 120354 -164595 -327472 -229090 82824.4 22425.9
3 3.36027 -8.11255 -16.0264 -281569 206677 -407762 -4266.49 57726.9 80021.8
3 -6.20321 -6.2858 -15.1108 80851.1 -211473 -40415 128270 109980 -87443.8
3 -5.75335 -6.80987 -16.3313 -254973 157096 -29141.1 65695.4 124454 -104300
3 -4.66392 -7.70155 -16.3012 46639.2 -171304 -132744 152019 159779 -76626.2
3 -4.07453 -8.08152 -15.1039 -279572 168665 -121128 -31770.7 127304 -69453.3
3 3.94936 -7.86288 -14.7704 190355 -266787 -414524 -121940 31204.1 34781.3
3 5.45497 -6.30737 -15.839 192870 -286170 -578996 20765.5 7898.24 9154.6
3 -7.5105 -4.62953 -16.2468 143326 -216274 161974 34021.8 49645 -67331.6
3 -7.08729 -5.20894 -15.0449 -187838 101503 77448.7 185583 98233 -100534
3 6.14673 -5.07558 -15.7257 -116618 971.269 -594194 -225418 266.618 8739.06
3 -8.24964 -3.44855 -16.2239 -68154 28110.7 320863 194629 57763.4 -35825.7
3 -8.50164 -2.84476 -14.9688 181187 -172531 328233 -55341.5 16949 -90237.8
2 -2.04479 -2.79814 -15.2166 1.13588e+06 265130 -1.15777e+06 27417.5 78690.3 126608
3 6.55055 -2.91262 -16.7137 38.3518 -78492.7 -568307 -190381 3527.11 -12944.3
3 6.48427 -2.35215 -15.4511 57270.5 -176925 -541636 151762 -23152 -32089.2
3 -8.96753 -0.775927 -16.0624 139501 -147105 560152 -153557 -34220.9 -4547.62
3 -8.87891 -1.50958 -14.8592 -16491.5 -15052.7 478925 173463 19964.8 -52480.7
2 -4.24115 -1.18821 -16.0182 34856.4 871313 -415172 1245.5 700262 -652213
2 -1.92303 -1.98844 -16.3567 1.14258e+06 -758304 -137740 -11902 42826.8 643871
2 -3.04633 -1.16791 -16.7611 -858751 766310 401393 -503724 321655 -234879
2 -0.709421 -1.22459 -16.5734 -850550 633195 252884 605752 -483859 -90421.3
2 0.385301 -1.31456 -15.7011 85544.5 793014 -677978 125262 -674851 -512072
3 6.3299 -0.942973 -15.3524 72176.6 -181430 -481607 -154570 5358.59 -49058.6
3 6.21073 -0.116966 -16.4517 -3108.63 -78253.3 -453942 179300 -3715.73 -24899.4
3 -2.1879 -8.92197 -13.869 -264673 154725 -195515 -165862 100780 -34477.3
3 -0.801577 -9.13708 -13.846 -156610 32821.8 -278164 233135 135505 30815.8
3 2.01254 -8.85308 -13.7228 82373.7 -175665 -291951 -260718 69811.3 12470.4
3 3.27746 -8.25397 -13.598 -302615 197379 -345504 -19786.6 65826.6 111934
3 -4.67716 -7.73826 -13.9175 25735.7 -169314 -128370 169037 119371 -60933.1
3 -5.73696 -6.85578 -13.912 -265322 151163 -51121.1 99606.6 100282 -68887.8
3 5.02177 -6.94642 -14.6668 -251067 151000 -508811 -165059 8551.52 78427.4
3 5.44801 -6.48639 -13.4166 181595 -312237 -505022 11956.8 11529.8 46195.8
3 -7.56465 -4.76468 -13.8111 154389 -218098 76033 54490.3 86258.6 -137600
3 6.27001 -5.3445 -13.3021 -128937 -5102.59 -517040 -234084 -29608 36154.9
3 6.46312 -4.54474 -14.4496 125199 -273504 -569013 116769 -20045.4 -12536.9
3 -8.26306 -3.54215 -13.7428 -86077.5 11998.2 241560 192057 62545.8 -139706
2 -3.27973 -2.83823 -14.4536 -731025 314243 815278 111629 -680073 40660.3
2 -2.92609 -2.92144 -13.0474 398038 307207 -242602 91507.1 1.0362e+06 -84207.1
2 -0.938547 -2.84646 -14.2881 -800591 311193 750849 -28403.3 565473 26773.8
2 -1.48075 -2.92662 -12.9549 534361 255150 -562632 -54658.6 -968259 -142138
2 0.251492 -2.13417 -14.5198 112958 -678367 836950 -499634 293032 222124
3 6.58766 -3.16728 -14.3502 6536.9 -133966 -555222 -211176 -18189.3 -44123.1
3 6.65936 -2.57483 -13.0463 57936.7 -207044 -521590 167479 -48975.1 -54448.7
3 -9.08255 -0.913194 -13.6023 28979.8 -31326.3 502988 -198761 -1434.23 -113178
2 -4.373 -2.04449 -14.8551 109647 -666687 1.02019e+06 590768 -357458 170576
2 -5.14155 -1.3249 -13.8555 348604 678458 -892030 -327224 109563 435881
2 0.936176 -1.46527 -13.4376 509490 848194 -1.10858e+06 398128 33668.9 408868
2 1.48799 -0.224306 -13.9397 71769.9 -186400 522180 -413619 -306581 -808996
3 6.24679 -0.346789 -14.0703 12006 -127975 -459985 187100 -22880.4 -54960.6
3 6.43927 -1.19924 -12.9722 82932.5 -220903 -467271 -154859 9954.45 -79457.9
3 -4.14746 -8.14244 -12.7031 -305848 183058 -128717 -9117.14 99417.3 -42100.6
3 -2.90866 -8.76869 -12.703 -49208.1 -96936.8 -195683 221971 109950 -23233.7
3 -2.2277 -8.96999 -11.5031 -281058 148094 -162588 -159464 56940.7 -3327.1
3 -0.854409 -9.19541 -11.4831 -169686 24500.3 -256846 231649 84176.6 30960.6
3 -0.129733 -9.20354 -12.6557 -127345 19286.7 -251826 -278856 69384 -5071.7
3 1.22818 -8.92574 -12.5694 -278212 154913 -268651 136602 94284.1 79447.9
3 1.91007 -8.79439 -11.3734 80504.6 -153606 -247344 -246213 50888.7 7270.48
3 3.21075 -8.3586 -11.2564 -306851 212905 -336479 2801.47 46634.1 118282
3 3.84445 -7.92565 -12.3762 202250 -266654 -354528 -119820 63370.1 50318.6
3 -6.37877 -6.4991 -12.6998 71782.3 -212240 -18483.3 132548 102431 -115825
3 -4.85533 -7.898 -11.4862 9027.31 -169209 -127753 182119 107133 -59190
3 -5.927 -7.00447 -11.4847 -271721 136934 -17972.2 101240 99464.8 -82800.5
3 4.90915 -7.07894 -12.2994 -240496 153987 -437420 -155211 11518 127422
3 5.35954 -6.64767 -11.0616 185983 -237107 -421431 48158 8705.2 61768.2
3 -7.27142 -5.44343 -12.647 -183710 75277 56045.5 193172 99914.4 -140634
3 -7.71359 -4.91286 -11.4159 143937 -191483 105956 50257.2 116718 -225523
3 6.14255 -5.4844 -10.9095 -106574 62373.6 -435600 -213758 -28889.6 83434.9
3 6.56006 -4.78081 -12.0425 118483 -232059 -491478 117993 -37829.4 14352.1
3 -8.56868 -2.97543 -12.5183 150629 -180541 286164 -66202.6 75908.4 -207632
3 -8.31717 -3.66679 -11.3561 -71673.9 36806.2 246764 197041 79246.7 -242216
2 -3.67334 -2.22127 -12.0856 643472 -705573 361225 376776 470978 -453603
2 -0.824014 -2.26124 -11.9152 720005 -790049 114729 -245565 -427485 -607356
3 6.71644 -3.36965 -11.9031 24756.3 -116480 -455238 -210618 -33898.2 -10460.8
3 6.74482 -2.77585 -10.6653 50893.3 -134064 -427614 153551 -47934 -19240.2
3 -9.1501 -1.69664 -12.4585 -33836.3 4280.83 396724 179478 66016.4 -201081
3 -9.43167 -1.08575 -11.2536 142506 -137785 424732 -160650 33746 -245066
2 -4.80178 -1.41106 -12.4913 -34179.1 903378 -359496 -521693 -709347 -67154.5
2 -4.82502 -0.232659 -11.645 -76123.3 -178355 673727 938289 120300 585123
2 -2.9968 -1.53958 -11.0006 -954366 732606 52030 324803 -586012 492691
2 -1.59598 -1.55098 -10.9299 -1.07422e+06 574771 -220808 -280011 479252 415992
2 0.401605 -1.53139 -12.1437 -138130 848043 -441520 640134 767950 -133205
2 0.388139 -0.363302 -11.2961 -132147 -195808 580419 -878597 -127541 365193
3 6.44417 -0.58087 -11.7115 -10023.1 -116789 -435558 180965 -8793.36 -73063.3
3 -4.22259 -8.2825 -10.3035 -320445 174615 -100353 -7061.07 70005.2 -8148.94
3 -2.94311 -8.7895 -10.3316 -62496.3 -104597 -163990 223028 65464.6 1347.93
3 -2.29579 -9.07468 -9.1337 -307748 168214 -118502 -161952 823.942 40568.4
3 -0.174087 -9.25494 -10.2611 -138088 20481.8 -227730 -269108 13055 15295.1
3 -0.936155 -9.3022 -9.09065 -190441 22759.2 -238442 227295 5047.03 49257.1
3 1.19031 -9.07153 -10.2194 -283090 161259 -260672 155188 32357.8 65155.5
3 1.82863 -9.00189 -8.98815 39058.6 -127142 -262121 -274026 2644.72 11097.1
3 3.7624 -8.10427 -10.0159 213905 -246645 -324984 -112773 27269.5 45236.1
3 3.15586 -8.5703 -8.87426 -329699 236107 -350233 -13866.6 -5303.16 95347.7
3 -6.50161 -6.60017 -10.2926 93583.8 -191332 35251.5 92509 132976 -149690
3 -4.88519 -8.02231 -9.14581 34730 -154352 -44149.7 170717 120029 -44717.1
3 -6.02554 -7.21085 -9.1051 -239770 147887 54597.7 83318.5 132370 -109582
3 4.89972 -7.2968 -9.91432 -226003 178025 -405713 -132347 -7598.99 105925
3 5.30998 -6.85132 -8.65232 215582 -232624 -396285 45269 -4889.88 66774.1
3 -7.29005 -5.45228 -10.232 -166497 103942 121450 145078 114226 -197523
3 -7.68451 -4.90293 -9.03875 157603 -170488 161887 15412 132397 -246068
3 6.23732 -4.9176 -9.68036 114896 -121058 -434491 140043 -37468 64557.2
3 -8.66924 -3.06762 -10.1302 182405 -194140 270571 -63509.7 72875.3 -278600
3 -8.3747 -3.69401 -8.95711 -66609 55927.1 248468 157832 89990.3 -276948
3 6.58488 -3.58575 -9.53347 30526.9 -17252.4 -370956 -186980 -18328.7 41735.9
3 -9.23937 -1.78285 -10.0819 6427.14 -24611.4 384807 164281 42488.1 -271464
3 -9.65826 -1.24803 -8.86245 127323 -174380 364421 -171810 15627.2 -276392
2 -3.70283 -0.307249 -10.7343 695207 -232180 -88128.9 -448308 -27285.9 -682665
2 -0.845114 -0.381639 -10.5434 545704 -603518 -368606 689898 177058 -631882
3 6.59488 -1.37714 -10.5893 95980.9 -165765 -376250 -143496 18582.1 -40870
3 6.38685 -0.808816 -9.31043 -3161.11 -63070.3 -351105 159698 -2011.08 -33984.1
3 -4.3213 -8.45435 -7.96848 -290306 203120 -10371.7 -2983.3 84325.5 11333.4
3 -3.01673 -8.93391 -7.9523 -53694.2 -61059.7 -86149.7 222227 50344.4 38140.2
3 -2.34469 -9.14635 -6.72187 -272666 198442 -78194.8 -145518 2318.49 57778.4
3 -0.286939 -9.30456 -7.85694 -205017 52293.7 -237224 -277567 -38341.4 45940.3
3 -0.989932 -9.39562 -6.6787 -169135 69192.9 -231772 225364 978.743 70996.2
3 1.10619 -9.22569 -7.81607 -337997 176339 -291213 147940 -19322.6 72450.1
3 3.7109 -8.34552 -7.64276 170138 -273719 -352689 -171872 811.661 40668.3
3 -6.43629 -6.66281 -7.89225 126834 -146603 107514 84777.1 177826 -155968
3 -4.84343 -8.02294 -6.7488 108634 -77781.2 29471.9 120899 141909 -58403.8
3 -5.91671 -7.14393 -6.70219 -156495 223790 105139 58322.9 133922 -129231
3 4.77085 -7.45671 -7.52083 -254783 169666 -421839 -206173 -22690.8 85519.1
3 -7.31724 -5.57576 -7.87982 -126435 138437 180095 138857 136605 -223418
3 -7.72654 -5.01709 -6.66139 189906 -96394.8 173774 -20061.3 128275 -255290
3 5.94949 -5.62693 -8.55138 -79342.9 62129.1 -406058 -208453 -22359.8 80756.1
3 6.17997 -5.14017 -7.27756 158117 -176682 -409427 137689 -25041.5 74626.2
3 -8.82095 -3.16245 -7.74153 179484 -168859 235022 -87075.8 78040.3 -285336
3 -8.45471 -3.81018 -6.55552 -28167.3 110511 224624 117110 95262.1 -263561
1 -2.63978 -3.18532 -6.96378 168847 36108 214570 563164 216985 -723910
1 -1.47963 -3.95417 -7.17419 -615158 641813 521501 456442 -439203 -219429
1 -0.240314 -3.29015 -7.51221 1.12142e+06 -630578 -278260 -49562.3 111293 701486
1 0.842383 -3.97378 -6.84654 -834740 620890 612323 -434979 269903 -292108
3 6.4382 -3.77242 -7.12881 63259.3 -73502.1 -354334 -183808 -14517.7 45069
3 6.5048 -2.99784 -8.27413 57804.4 -61959.9 -366789 157058 -39287 52009.3
3 -9.50015 -1.96593 -7.66763 4806.78 -3894.32 327235 139771 63840.5 -263006
1 -2.57784 -1.74567 -7.11368 -146213 710347 -414040 -650588 562463 709951
1 -1.37988 -1.10789 -7.47434 -1.09577e+06 541895 -181607 -676936 -93500.4 248083
1 -0.190009 -1.90088 -7.66625 943318 -1.20303e+06 53911 84195.2 4604.3 -250574
1 0.940263 -1.15234 -7.17215 -935987 790076 350572 627731 -1187.72 251106
3 6.47658 -1.61968 -8.13924 86685 -93770.4 -287808 -133925 1868.41 12792.3
3 6.28637 -1.03804 -6.88719 17402 -49500.1 -291450 165186 -16144.3 28856
3 -4.31472 -8.41309 -5.53686 -167043 158837 50860.7 -76263.9 80909.3 -53125.6
3 -3.01922 -8.95041 -5.53432 85252.1 -70109.3 -36336.4 182595 80566.4 13865.7
3 -0.330678 -9.50105 -5.474 -208288 93343.3 -259510 -280953 -18692.1 53074.1
3 1.03764 -9.50836 -5.436 -337491 195568 -298558 131348 -825.344 76258.9
3 1.77112 -9.21391 -6.59261 -33472.2 -124661 -309159 -321679 -38428 37109.8
3 3.07848 -8.76549 -6.49446 -412242 254895 -383386 -59115.7 -35981.4 86245.9
3 3.59516 -8.55446 -5.23856 153244 -300430 -396192 -230356 -47956.8 21621.4
3 -6.41919 -6.63512 -5.52342 192691 -61582.8 138135 -56618.6 145095 -213317
3 4.66703 -7.68343 -5.09519 -299119 134816 -440942 -264511 -26308 51640.5
3 5.13304 -7.05394 -6.24685 226667 -306638 -423035 3357.41 -22362.7 41175.7
3 -7.32058 -5.58767 -5.48108 -105773 234009 192952 2713.66 77515.6 -213336
1 -2.00793 -5.31057 -5.18519 352055 120435 -748655 -181821 773436 -525117
1 -3.21044 -4.53513 -4.96988 -258062 -7453.54 -328682 -15155.9 -869435 643092
1 -1.16261 -5.04841 -6.27608 214062 90319.5 -68899.5 -774262 895783 253689
1 0.27637 -5.05964 -6.07763 501925 90204.1 -182436 655997 -657856 382389
1 0.83595 -5.37117 -4.8276 879327 375453 -734816 219340 -527423 -476116
3 5.76601 -5.83531 -6.11453 -48985.4 -14030.8 -433922 -268253 -14011.9 59340.7
3 6.01264 -5.30699 -4.8325 170410 -259547 -446491 115959 -6356.42 58038.2
3 -8.80917 -3.20511 -5.34032 126487 -30553.8 187371 -109971 51489.5 -267632
1 -4.00722 -2.22138 -5.32029 -188780 931403 -694343 125691 627103 -350546
1 -3.51023 -3.47615 -5.84192 360818 -668884 171801 -437540 -176174 952694
1 1.95655 -3.25207 -6.37828 140291 117150 218307 -535685 -210975 -874192
1 2.53417 -3.57779 -5.08859 486103 -441233 360575 265650 208881 860068
3 6.50106 -3.17755 -5.87285 91616.4 -148343 -376708 170185 -16415.4 62888.1
3 6.32863 -3.91428 -4.71442 70785.3 -172122 -382246 -200716 14916.3 48553.3
3 -9.46131 -1.97399 -5.26979 -11534.7 130339 269414 136601 57070.6 -228677
3 -9.80822 -1.31806 -6.45793 125280 -107344 295204 -159766 20161.8 -265239
1 -3.42824 -1.15369 -6.10509 538025 -926356 777265 202451 -280264 -88710.5
1 2.0023 -1.8119 -6.53675 118547 766166 -489743 495127 -408465 705126
1 2.59734 -1.24684 -5.34717 466847 -875406 853349 -195128 257202 -180477
3 6.40076 -1.78005 -5.72735 118328 -192221 -258971 -117775 -6340.42 35507.6
3 6.21942 -1.18647 -4.46013 -12049.1 -94388.1 -251380 170884 1227.26 44444.2
3 -4.39993 -8.56219 -3.14907 -118544 187462 116176 -94597.3 202582 -112592
3 -4.96703 -8.13938 -4.32664 221210 -118286 137260 -33633.1 185469 -105470
3 -3.14182 -9.11849 -3.15756 121378 -53138.2 30560.3 157953 203245 -44605.3
3 -2.4494 -9.28393 -4.35038 -211054 197294 -70532.4 -136820 87787.6 7902.98
3 -0.490607 -9.67412 -3.07663 -180790 103180 -188765 -278305 52666.3 18985.1
3 -1.06954 -9.50814 -4.31332 -107468 79608.7 -199179 218296 80087.8 49558.8
3 1.66161 -9.45472 -4.18553 -38870.9 -130324 -307907 -323901 -20878.4 24107.3
3 0.899737 -9.68588 -3.03494 -309772 195308 -262923 128458 53533.5 70156.7
3 2.95616 -9.0235 -4.10941 -424891 259940 -384921 -63341.1 -12640.4 76522.4
3 3.47751 -8.78117 -2.84426 151035 -318678 -374494 -228502 -29042.6 7062.24
3 -6.51197 -6.80278 -3.11873 209907 -56639.3 159374 -129306 181987 -161378
3 -6.01911 -7.22115 -4.34334 -92572.2 195600 152216 -131233 136009 -180256
3 5.04756 -7.24248 -3.83414 219869 -366953 -440602 -16282.9 -19656.7 -930.1
3 4.55798 -7.90773 -2.71546 -313256 142002 -447218 -278665 -14281.9 17499
3 -7.74936 -5.05695 -4.25685 136459 55297.4 200692 -114628 102263 -217140
3 -7.39404 -5.70287 -3.0737 -98332.2 267047 188321 -50106.9 112433 -210398
1 -3.38446 -4.36458 -3.54122 -282331 -216038 471880 358907 670976 -536699
1 -2.28304 -5.03195 -2.8805 808496 584106 -1.05176e+06 -510796 -487905 -117728
1 -1.43633 -5.61917 -3.89538 -653930 18724.2 957913 475611 -343838 271953
1 -0.0442046 -5.65812 -3.71585 -662160 134334 1.02436e+06 -536873 -56136.8 162083
1 1.96133 -4.60983 -4.32224 -115655 406847 187294 -103428 869814 567367
1 1.77069 -4.42841 -2.90105 178128 2831.47 440861 -360746 -782987 -478062
3 5.68946 -6.03109 -3.68846 -56287.9 -76417 -482897 -298736 6928.48 24758.6
3 5.9285 -5.51153 -2.40757 162951 -282027 -475536 122043 13210.7 11289.9
3 -8.50039 -3.88144 -4.19104 -76612.8 257916 197534 14688.7 70713.5 -199680
3 -8.89373 -3.31003 -2.96355 84372 -50071.2 142487 -100133 17216.6 -136608
3 -9.57793 -2.09689 -2.90725 -38888.9 119057 255362 133893 46750.6 -104692
1 -3.87172 -3.14785 -3.02612 324759 -983232 781848 -261274 218190 -285424
1 2.90303 -2.33279 -4.44365 17751.7 1.08133e+06 -892881 -71486.6 -496305 -388230
1 2.70792 -2.16549 -3.06502 -143552 1.0896e+06 -737373 136615 613098 -378178
3 6.36725 -3.33517 -3.42742 52945.4 -185113 -373741 163068 24053.1 35131.5
3 -10.3325 -0.0690602 -3.95341 64830.6 -38762.9 363955 179154 22978.8 -146785
3 -9.78087 -1.34464 -4.04573 120680 -107001 213964 -133245 1762.82 -182550
1 -4.18721 -2.06012 -3.93455 -28558.9 1.02252e+06 -852957 -99330.9 -478698 -398184
1 -3.77846 -0.821432 -3.30453 488064 -506756 392983 248572 212489 841765
1 2.24055 -0.910225 -2.52568 503753 -451510 304061 -398031 -172246 847317
3 6.28064 -1.9597 -3.32653 104792 -238799 -274044 -111745 11538.5 10184
3 -5.06536 -8.31355 -1.97917 179223 -78757 172626 83885.2 241810 -154336
3 -4.54984 -8.73559 -0.75356 -236400 225303 179467 -19029.3 241615 -170514
3 -2.5796 -9.46462 -1.92038 -210102 209599 57613.3 -138715 185363 -63269
3 -3.32186 -9.3807 -0.747653 6852.24 -47753.3 151559 198617 261839 -93948.3
3 -1.22815 -9.80847 -1.89848 -102861 73893.3 -95675.2 213746 165117 17050
3 -0.608008 -10.0885 -0.654851 -162207 90281 -51034.5 -266123 100798 -8917.42
3 1.49533 -9.70157 -1.76663 -11453.1 -117680 -254645 -329580 14934.6 12336.1
3 0.771855 -9.99194 -0.61587 -286960 178648 -206780 154073 87206.7 58440.3
3 2.78683 -9.2136 -1.71011 -398285 246071 -334004 -58700.4 15910.5 62984.5
3 -6.64814 -6.94746 -0.724563 186847 -140498 156452 56759.2 183241 -227323
3 -6.14639 -7.42047 -1.94136 -94773.6 205131 135109 17093.4 203269 -203483
3 4.96113 -7.48284 -1.43694 225101 -385400 -449673 -15600.2 -9064.39 -13004.8
3 5.73526 -6.31992 -1.30728 -52853.1 -108439 -467057 -309724 34952.6 -3945.71
3 -7.80216 -5.17927 -1.83361 153722 -60617.2 149511 -74717.3 76625.5 -159316
3 -7.44071 -5.79602 -0.641439 -75577.9 116514 75268.7 105921 127088 -213282
1 -1.7162 -4.47539 -1.72464 515730 -166271 34900.8 -1.03631e+06 -443189 -364548
1 -0.284604 -4.50341 -1.54003 446488 -336138 190380 955095 361657 -251701
1 0.537414 -5.07899 -2.52447 740229 569148 -846704 455171 576277 -80974.7
3 -8.60968 -4.00934 -1.80602 -60979.8 150055 136417 65186.8 60710.8 -108614
3 -9.90343 -2.38015 -0.544937 -5650.5 17874.3 257457 131417 11383.8 15644.7
3 -9.16771 -3.57647 -0.598767 157993 -147542 84736.9 -77846.4 -11157.3 -54552.3
1 -3.26358 -2.57075 -1.84261 33532 800733 -562169 458354 -492262 629164
1 -2.2129 -3.22884 -1.18755 -1.07283e+06 768771 188558 485701 -125318 179626
1 0.105467 -3.27344 -0.88902 -1.12512e+06 615198 -15861.6 -552667 -33027.4 68490
1 -1.08724 -2.48449 -0.661892 677885 -1.45959e+06 -525293 -943.666 -59138.2 -279262
1 2.13533 -3.22797 -2.28059 550263 -855088 717264 247721 -248534 -150055
1 1.3011 -2.63993 -1.26043 -155374 780131 -425028 -580958 579219 632664
3 6.35609 -3.54754 -1.03886 53792.1 -195328 -349237 177610 38406.1 -5117.07
3 6.27844 -4.15757 -2.30872 48248.8 -196734 -381293 -191404 40396.1 7715.68
3 6.29018 -2.14136 -0.937327 106629 -240710 -275135 -96801.5 33148 -25124.4
3 -10.5344 -0.27719 -1.59633 41467.1 -97672.5 408441 175837 16960.8 -63873.2
3 -10.1019 -1.59878 -1.69789 126836 -188577 222057 -143028 -31552.6 -58259.3
1 -3.21245 -1.13889 -2.01467 127308 135700 263498 -503099 -202373 -906678
1 -2.12523 -0.406349 -1.51239 -887408 541507 577619 -326379 207368 -239282
1 -1.04024 -1.09102 -0.839536 1.00292e+06 -858597 -514408 -33756.4 67069.4 831773
1 0.19713 -0.442818 -1.2106 -706541 538130 501550 451466 -434658 -175411
1 1.36162 -1.20316 -1.41027 149570 77039.5 294666 630407 176280 -778137
3 6.10832 -1.3881 -2.08598 -5708.13 -103578 -257856 166452 48192.1 11713.8
3 -5.21176 -8.51163 0.465603 79655.5 -139560 213571 157910 267491 -190287
3 -2.78958 -9.85871 0.457084 -244560 170966 205227 -136481 194838 -78241.8
3 -1.41238 -10.1607 0.502518 -122710 33908.2 12530.9 227860 171218 9077.66
3 1.38635 -9.95266 0.667363 60346 -126250 -179868 -282824 24139 4325.74
3 2.69021 -9.44724 0.729121 -348343 265350 -279800 -15315.4 43755.1 57903.2
3 3.32286 -8.98848 -0.41503 181295 -332004 -318971 -205694 -6152.15 -4607.33
3 4.41473 -8.10497 -0.316994 -294606 134477 -416557 -264661 4592.11 32812.7
3 -6.26214 -7.56223 0.490387 -217179 165468 153202 101197 227245 -232162
3 4.81728 -7.61072 0.935063 225841 -372993 -442051 17657.1 8413.96 17823.9
3 5.65344 -6.51449 1.07765 -59210.4 -90751.5 -409062 -276808 3542.2 21057.2
3 -8.78379 -4.18006 0.614809 -21102.6 66260.4 -10979 101066 63516.8 -75187.7
3 -7.88931 -5.24697 0.580601 205545 -144101 39952.3 -33567 92370.1 -200042
3 6.00362 -5.79636 -0.07013 144605 -311162 -438874 142390 16203.9 -22527.5
3 6.34796 -4.42986 0.0573223 55449.9 -232544 -366250 -186387 31985.2 -32468.1
3 6.31247 -3.82342 1.3112 43741.7 -218476 -338910 184512 29951.3 -48343.7
3 6.12285 -2.42335 1.46479 111547 -262964 -269509 -100653 26371.6 -60109.3
3 -10.6389 -0.465899 0.781746 35285.2 -124468 581617 170487 -157.58 28080.6
3 -10.2118 -1.80238 0.706042 132474 -232234 204794 -167929 -41466.2 70851.4
3 5.49016 -0.312497 0.369843 154263 -254706 -138909 -38192.7 40009.7 -48873.4
3 6.06982 -1.57512 0.298638 -12249.2 -115570 -251341 182259 62984.9 -25214.5
3 -1.62746 -10.4609 2.89644 -80084.9 29367.2 102054 222426 110032 11235.8
3 -0.800662 -10.4004 1.75085 -96950.5 77020.7 59214.9 -245318 64954 -8085.48
3 0.6208 -10.2265 1.81339 -223847 172602 -152691 181568 68219.2 50807.9
3 1.2014 -10.0237 3.0394 119809 -116214 -149182 -256606 4040.93 1869.78
3 -5.43167 -8.70868 2.81138 61729.8 -93698.3 333528 152352 266215 -199934
3 -4.769 -9.06928 1.65081 -286038 209528 272581 -2200.07 240941 -140906
3 -2.97654 -10.1638 2.8697 -208616 180588 340654 -133664 120534 -42242.8
3 -3.55938 -9.81781 1.63271 -35766.9 -83476.2 259023 196989 224120 -79919.2
3 2.4844 -9.54917 3.10372 -303495 273724 -308160 19042.9 54773.1 66204.2
3 3.14073 -9.11358 1.96991 221546 -274661 -305580 -148691 27388.2 25033.4
3 4.23066 -8.25615 2.05712 -254277 173924 -400191 -214268 29745.8 93475.3
3 -6.43706 -7.70696 2.85277 -229521 193134 153963 102054 296942 -251663
3 -7.68776 -6.00141 1.73736 -107655 122600 -78566.1 123080 201386 -237143
3 -6.81187 -7.0627 1.6794 160211 -141014 167914 64109.1 226508 -267337
3 4.66283 -7.84447 3.3406 239871 -278877 -427901 57398.2 47248.8 77908.9
3 5.49248 -6.74511 3.46938 -42729.4 12342.2 -362257 -218304 -16388.7 84769.3
3 -8.21554 -5.55462 2.95895 238354 95880.9 -123833 -127436 196328 -293425
3 -9.03497 -4.43587 3.00443 79894.9 254890 -430579 -9500.12 127269 -109868
3 5.80053 -5.95222 2.36991 138330 -227389 -415402 155613 15137.2 17220
3 6.18751 -4.59069 2.45519 62778.1 -139586 -322232 -170206 -30480.2 -2176.29
3 -10.0066 -2.52104 1.90062 20200.9 135994 136172 68620.1 5779.01 144611
3 -9.21356 -3.68178 1.83081 197502 -30653.2 -149233 -141286 16978.5 -7188.45
2 -5.39518 -2.18978 3.27832 -352317 466062 381941 735391 218789 -538336
2 -3.73907 -3.84324 3.05761 448925 -610060 500434 608739 -281938 78503.9
2 -3.26019 -2.63892 2.42288 -934280 944773 -187239 -220778 737247 -132651
2 -1.90405 -2.29209 2.5168 -1.04469e+06 595735 -394688 -473755 -450972 -195784
2 -0.94239 -3.1232 3.20279 814188 -1.05005e+06 323493 -27631.5 265345 377253
3 -10.4994 -2.04108 3.1137 164392 -109766 -89076.1 -188756 -75943 361153
3 -10.8131 -0.679201 3.20941 66435.4 1427.66 1.04894e+06 140124 -50774.8 268441
2 -4.28069 -1.62004 2.5579 777615 -683491 161898 -309534 -156972 604348
2 -3.92696 -0.280716 2.76895 462697 -368288 156356 -655358 -526177 -338749
3 4.35207 -1.03279 16.0402 -33860.7 428629 -698418 -194807 -175692 116337
2 -1.54585 -0.914364 2.73687 194479 -602384 -219533 852696 -230798 439452
2 -0.374645 -0.876837 3.58113 102619 -183545 323688 -917847 -41054.5 -547857
3 5.208 -0.580576 2.76751 153465 -260203 -189169 -47726 7138.19 -47795.9
3 5.76738 -1.87001 2.70981 -6377.45 -111776 -277329 187216 9728.46 -49587.9
3 -3.05794 -10.1804 5.24265 -173018 195079 451244 -128084 46867.3 -43217.6
3 -0.980413 -10.4749 4.1284 -64372.4 94087.9 155337 -246951 -1351.25 -1635.7
3 -1.72262 -10.5086 5.28975 -64825.7 43443.9 199208 202974 29579.2 10050.2