ITEM: TIMESTEP
60000
ITEM: NUMBER OF ATOMS
2928
ITEM: BOX BOUNDS pp pp pp
-2.2566552854012702e+01 2.2566552854012702e+01
-2.2516121161127113e+01 2.2516121161127113e+01
-1.7337828800000000e+01 1.2766946480000000e+02
ITEM: ATOMS type x y z f_avestress[1] f_avestress[2] f_avestress[3] f_avestress[4] f_avestress[5] f_avestress[6]
3 0.276608 -8.35694 -15.9308 -31873.7 -13232.2 1.41757e+07 -225162 -47035.4 -31877.7
3 -2.35584 -8.03661 -15.9029 102265 -141058 1.42686e+07 170873 -63920 -8919.1
3 -3.65913 -7.37073 -15.9052 -237740 195195 1.40315e+07 -53020.4 -70515.3 -31636.4
3 1.75349 -8.1699 -15.8688 -178316 116515 1.4299e+07 179415 -56312.1 -24685.2
3 4.15466 -7.05977 -15.926 145062 -232901 1.4214e+07 -91253.3 -24549.9 -62603.8
3 -6.41659 -4.42709 -15.9718 -137221 127025 1.42095e+07 163837 -84932.6 10492.3
3 -5.62377 -5.68858 -15.9315 166397 -202713 1.40896e+07 -31130.7 -74226.3 -24277.5
3 5.14664 -5.96453 -15.9373 -248926 156165 1.40959e+07 -116302 -19154.2 -71213.7
3 6.24363 -3.64627 -15.8653 105188 -94754.6 1.44308e+07 63080.7 -10272.2 -5114.89
3 6.60954 -2.20023 -15.8563 5816.24 40330.6 1.43248e+07 -150834 -74176.1 27433.2
3 -6.72346 -1.80143 -15.9522 61972.3 -27280.9 1.42083e+07 -98745.5 -32516.2 -110935
3 -6.60362 -0.372993 -15.9918 76515.4 -31975.2 1.40319e+07 139972 -906.011 -120769
2 -2.1804 -0.542264 -15.3129 788972 418625 -1.014e+06 -288015 -185304 260271
2 0.309953 -0.843635 -16.5355 67791.8 467206 -342503 374995 -848920 -89573.2
2 1.70544 -0.45509 -16.3665 492838 -167121 24849.4 -323287 699544 530076
2 -0.0241608 -1.71314 -15.4594 -562263 6333.98 776519 -616402 483582 -29150.5
3 -0.327021 -8.28562 -14.3243 -27225.9 -14150.1 1.42215e+07 231781 -56206.4 -23334.3
3 -4.19174 -7.09081 -14.3089 187434 -226196 1.40638e+07 78886.9 -60913.1 -27751.9
3 -1.78864 -8.20537 -14.3195 -170972 116749 1.42578e+07 -179021 -57865.2 -38707.1
3 2.29534 -8.05011 -14.3109 75534.2 -153951 1.42785e+07 -200390 -48308.6 -25882.1
3 3.60746 -7.40477 -14.3359 -270579 199336 1.42143e+07 41424.8 -25661.3 -40520.5
3 -5.25121 -6.09404 -14.3196 -225817 188761 1.41083e+07 80228.5 -64058.8 -33109.6
3 5.42585 -5.47172 -14.3301 145208 -237305 1.4095e+07 -7556.46 -14545.3 -79404.3
3 6.06816 -4.16977 -14.3218 -127330 56060.4 1.43141e+07 -195043 -417.443 -101049
3 -6.50043 -3.8309 -14.376 148381 -70402.9 1.42778e+07 -117239 -74869.6 -37979.5
3 -6.71302 -2.40014 -14.3321 -5258.85 86112.9 1.42096e+07 187652 -55495.4 -76563.9
2 -2.9247 -0.0384525 -14.1851 -482537 -233657 1.0127e+06 609756 -243997 131582
2 -1.31475 -1.55264 -14.8699 -467339 82449.7 540534 373726 680740 -408839
2 -1.46962 -1.68502 -13.4374 114246 195486 -68433.4 60721 -903470 478704
2 1.17186 -1.87713 -14.6102 899762 241116 -821053 289979 -19029.2 438677
2 2.21289 -1.10848 -15.2118 -621550 261134 655692 -359384 -581179 -588454
2 3.14091 -0.41838 -14.4129 123257 -570147 484578 -51421.7 -198728 -949836
3 6.59533 -1.62842 -14.3939 105194 13255.4 1.43478e+07 78063.4 -47111.4 -48308.7
3 6.7096 -0.188039 -14.3702 -56708.4 63909.1 1.43674e+07 -82214 -81400.1 -47252.7
3 0.299914 -8.43968 -12.7268 -48632.6 -8065.31 1.42748e+07 -233312 -69761 -17574.2
3 1.71821 -8.2235 -12.7062 -178661 116676 1.42527e+07 170610 -63548.5 -20025.2
3 -3.58814 -7.26272 -12.7186 -232837 190854 1.40496e+07 -52634 -77857.4 -9578.71
3 -2.35177 -8.08889 -12.7079 112523 -132949 1.42886e+07 187013 -42997.3 -39384.5
3 4.07308 -7.06563 -12.7355 152380 -234819 1.42046e+07 -93786.7 -8075.78 -30902.4
3 -6.27429 -4.34809 -12.7679 -140162 111662 1.42303e+07 163795 -59768.6 -93629.4
3 -5.67613 -5.66942 -12.7277 171112 -197782 1.41431e+07 -30199.8 -32650.9 -38231.4
3 5.15259 -6.04017 -12.7614 -238236 159211 1.41477e+07 -111052 6235.64 -57977.9
3 6.14803 -3.60765 -12.7469 131680 -115315 1.43047e+07 45725.2 542.425 -157936
3 6.51457 -2.21813 -12.7695 12315.2 13820.3 1.4243e+07 -158428 -48181.5 -154913
3 -6.62563 -1.80399 -12.7621 87038.3 -16576 1.42897e+07 -86810.8 -78252.1 -99252.3
3 -6.4918 -0.359003 -12.8017 79279.9 -26002.3 1.40468e+07 140241 11100.3 -93077.4
2 -2.49584 -0.711845 -12.9854 588324 359653 -557356 -153320 683493 -491773
2 -0.308824 -1.82671 -12.6757 -178889 -36097.2 446908 -690079 -672723 -91514.6
2 -0.22989 -1.17423 -11.4439 -523344 464416 -120384 491758 801130 116344
2 0.995223 -2.01945 -13.199 778236 118402 -532701 500474 404606 -473961
2 1.94413 -1.32637 -12.3596 -847502 445978 702727 -430960 237583 495211
2 2.94112 -0.529291 -12.9541 148134 -140794 270166 -325736 191200 1.04471e+06
3 -2.3189 -7.96559 -9.52437 83976 -130217 1.40925e+07 202972 -89342.6 18286
3 -0.319102 -8.45629 -11.1375 -27195.4 -8385.15 1.43342e+07 226919 -32424.8 8914.93
3 -1.75326 -8.14554 -11.1208 -162649 138652 1.4187e+07 -184757 -25618.9 -39817.1
3 0.240001 -8.45534 -9.54167 -14533.2 -3667.98 1.43476e+07 -226752 -63840 30522.9
3 1.72782 -8.25574 -9.53116 -171647 146852 1.41816e+07 168973 -72096 17137.8
3 -4.20951 -7.07108 -11.1239 168943 -223524 1.40405e+07 85239.1 -88760.7 9460.88
3 -3.64585 -7.17853 -9.554 -243660 205480 1.40999e+07 -40536.3 -66485.1 50673
3 2.24822 -8.02934 -11.1406 75916.7 -139711 1.42544e+07 -211017 -48277.7 -3661.11
3 3.57375 -7.3888 -11.1381 -278753 189330 1.42103e+07 35374.7 -11527.5 -17671.3
3 4.09615 -7.09268 -9.54746 158784 -218910 1.41638e+07 -95840 -17611.2 673.897
3 -6.33785 -4.31951 -9.57954 -110641 125776 1.43646e+07 163237 -99779.4 -77812.8
3 -5.38611 -6.13491 -11.1826 -225640 192569 1.42379e+07 65764.9 -76217.2 -6243.22
3 -5.68221 -5.65149 -9.57937 200990 -183357 1.42805e+07 -34641.2 -66233.7 -34215.8
3 5.0672 -6.00922 -9.61695 -209637 183315 1.42443e+07 -98452 192.884 -85751.8
3 5.40469 -5.47479 -11.1783 153223 -204491 1.42047e+07 17955.1 -17967.2 -100282
3 5.93853 -4.14912 -11.1697 -127803 92191.4 1.42812e+07 -169576 -671.514 -165475
3 -6.53125 -3.83084 -11.1613 126136 -146579 1.42867e+07 -104751 -66893.6 -120634
3 -6.76865 -2.3895 -11.1694 -13129.6 13809.7 1.42491e+07 199406 -100172 -125975
3 6.12318 -3.64546 -9.54218 127294 -114495 1.42513e+07 65848 -13702.6 -193214
3 6.54324 -2.22895 -9.62531 -8465.03 10198.2 1.42746e+07 -148108 -74378.5 -212867
3 -6.81958 -1.80436 -9.59579 80186.3 -122571 1.42072e+07 -121116 -89914 -104538
3 -6.59653 -0.342408 -9.62578 67794.6 -120751 1.40823e+07 125792 -4035.46 -110217
2 -1.24272 -0.274524 -11.0222 -183507 -155633 161435 880324 -83305.2 545758
2 1.22772 -0.842122 -11.233 784016 -405643 -209648 -208525 -417284 -576207
3 6.57976 -1.61258 -11.2137 95585.4 -54813 1.42947e+07 70526.6 -46257.3 -194160
3 6.73002 -0.151627 -11.216 60483.1 -27146 1.42992e+07 -115627 -168694 -136046
3 -0.30558 -8.41789 -7.92863 -46746.2 44870.8 1.43287e+07 233961 -80220.9 51513.6
3 -1.75959 -8.10328 -7.93916 -189374 160300 1.403e+07 -151149 -71131 28815.7
3 -4.13991 -6.94288 -7.93679 184427 -182108 1.41056e+07 103185 -52544.4 10490.3
3 2.31435 -8.00229 -7.99848 88189.5 -103724 1.41424e+07 -207758 -45707.7 21280.3
3 3.57057 -7.31206 -8.02974 -243784 223060 1.41496e+07 19303.8 8969.19 -14031.8
3 -5.29529 -6.10911 -8.00774 -194007 192814 1.42722e+07 92260.1 -76551.1 -68935.5
3 5.41509 -5.53385 -8.03481 205503 -151030 1.43067e+07 21192 -3303.39 -143751
3 6.03672 -4.1539 -8.05693 -81534.9 128319 1.42311e+07 -152093 33054.8 -186823
3 -6.45375 -3.77846 -7.99541 162904 -143680 1.43309e+07 -110406 -129418 -83444.1
3 -6.80962 -2.36044 -7.99233 14072.1 8702.46 1.41711e+07 193508 -106157 -72595
1 0.674157 -3.09338 -7.51353 591908 -738179 213226 -790547 23973.1 -138123
1 -1.30037 -1.71195 -7.79044 -392534 985774 -402275 78319.5 697184 165841
1 -1.76981 -0.380284 -7.44202 353165 -749644 743744 -607087 -269259 230952
1 0.0612186 -1.86708 -7.86945 -1.09796e+06 756728 -33846.1 278281 -119655 176991
1 0.964201 -0.796474 -7.61096 822279 -1.15317e+06 8797.08 307875 155295 -183509
3 6.56707 -1.60387 -8.02579 105388 -114144 1.42127e+07 79553.2 -50866.3 -191674
3 6.72897 -0.166894 -8.01255 56696.2 -77238.8 1.41919e+07 -91120.5 -130655 -169536
3 -2.38388 -7.98319 -6.35643 111181 -112933 1.40394e+07 173904 -72304.8 -10395.4
3 0.332841 -8.37614 -6.37986 -40648.6 40387.3 1.4281e+07 -220501 -69856.7 -10261.4
3 -3.68335 -7.28603 -6.37726 -196627 230836 1.40886e+07 -61077.9 -81843.7 -19814.3
3 1.74408 -8.17135 -6.40653 -181364 166693 1.4093e+07 147298 -44585 -16933.5
3 4.04879 -6.9499 -6.49449 215320 -191779 1.41957e+07 -58502.6 -24271.6 -73467.5
3 -6.3525 -4.36093 -6.40731 -99340.4 134091 1.42474e+07 161383 -183584 -116712
3 -5.69013 -5.63187 -6.41268 202457 -171290 1.42489e+07 -28558.6 -132344 -124480
1 -1.97293 -4.45613 -5.45421 -510635 559318 50921 -325248 845473 -195343
1 0.364699 -4.67638 -5.67245 -854863 543612 659645 350864 -9947.62 -342759
1 1.60222 -4.33144 -5.13514 -363237 298377 412460 -360814 -577740 -666684
3 4.97033 -5.88168 -6.46131 -166014 206205 1.43447e+07 -61037.7 51128.4 -160542
1 -2.17259 -2.68543 -7.22461 598558 -652274 421005 201024 -241892 -531392
1 -0.157883 -4.02784 -6.8412 685711 -4385.24 -396543 -603815 468555 486970
1 -1.57195 -3.89985 -6.75325 72926.9 -26565.1 390304 658164 -595893 119076
1 1.9912 -2.7589 -6.96433 42182.6 17979.7 174455 1.06221e+06 -19550.9 295190
1 2.43483 -3.38276 -5.73563 625396 412795 -701473 566270 -83698.3 658269
3 6.20021 -3.6501 -6.4488 80170.5 -106286 1.42231e+07 92000.7 95918.4 -204194
3 6.57975 -2.21838 -6.41957 9330.67 49400.4 1.42341e+07 -141629 335.294 -139553
3 -6.74873 -1.82739 -6.4166 42557 -19748.6 1.42373e+07 -131772 -155370 -117134
3 -6.78158 -0.374451 -6.44408 69244.3 -9902.75 1.41665e+07 134163 -32837.8 -130712
1 -3.12543 -1.96454 -6.42826 -189167 144634 11305.8 -631797 334769 880125
1 -2.92928 -0.525755 -6.58317 224219 343069 -326851 534256 241131 -665050
1 2.19185 -1.3312 -7.06455 -562239 643767 128721 -748249 -380813 -163846
1 2.84434 -0.560911 -6.03508 354751 807600 -879276 -316278 -328552 -132637
3 -0.344569 -8.39569 -4.87798 -13872.7 -88078.9 1.42437e+07 246278 -77806.5 21713.4
3 -1.80211 -8.2454 -4.85796 -164101 87111.7 1.40055e+07 -217619 -84854.9 -10882.7
3 0.253351 -8.32522 -3.28804 -48766.7 12734.9 1.42005e+07 -211505 -54862.3 57265.5
3 -5.23078 -6.06862 -4.8464 -278998 149342 1.43319e+07 -37120.9 -107588 -52644.9
3 -4.17918 -7.06424 -4.8266 221024 -231199 1.40646e+07 63240.1 -69687.8 -14826.4
3 -3.64701 -7.40002 -3.25565 -242950 181956 1.41235e+07 -56509.3 -31391.9 24294.1
3 -2.32588 -7.97023 -3.26151 74491.5 -152013 1.40937e+07 201011 -49708.2 43364.9
3 2.31738 -8.0257 -4.84303 112438 -198392 1.40938e+07 -167064 -61109.9 -25515.6
3 3.60712 -7.32441 -4.87628 -253981 158300 1.42098e+07 111001 -58568.7 -53559.1
3 4.06115 -7.00052 -3.28937 201609 -187723 1.41842e+07 -65526.8 -82036.9 -31369.7
3 -6.27113 -4.30727 -3.26963 -155732 126434 1.42315e+07 147583 -21702.1 -39414.4
3 -5.66672 -5.62718 -3.26959 179388 -212572 1.43607e+07 -54496.3 -23303.8 106.956
1 -0.767618 -4.99303 -4.83713 844731 -306405 -385628 138320 -449012 616982
1 -0.663881 -4.85789 -3.4584 605726 -84043.4 -671442 -176493 -655851 -307030
1 1.76136 -4.24847 -3.70174 173067 -514032 123097 -191951 631288 741439
3 5.37808 -5.43382 -4.86141 121525 -247412 1.44026e+07 153894 -16364.2 -149644
3 6.04116 -4.18321 -4.87808 -289854 149717 1.42047e+07 -90889.9 28621.8 -136523
3 5.01583 -5.89131 -3.27125 -169865 203728 1.44342e+07 -45509.7 -67418.7 -55676.6
3 -6.39161 -3.80963 -4.90795 -36614 -148854 1.42123e+07 -223182 -124689 -84631.2
3 -6.66413 -2.34101 -4.86681 -196896 66483.2 1.42728e+07 215163 -97015.4 -85338.3
1 -2.75387 -3.56743 -3.27769 -262656 -521648 741082 522146 -224829 539765
1 -2.92716 -3.75187 -4.70345 81137.5 -126841 -373282 -131823 374092 -840967
1 -3.50414 -2.47251 -5.18733 -261308 126969 -493829 38353.1 -417026 793197
1 3.17243 -2.64628 -4.71148 -161937 -701279 844850 -600129 227730 4257.31
1 2.76132 -3.20516 -3.42121 -146086 472651 -827146 314588 -640878 -313473
3 -6.75708 -1.76786 -3.29492 4331.65 -77831.7 1.42889e+07 -135055 5701.01 -41678.5
3 -6.83902 -0.321366 -3.27098 40321.8 -82899.5 1.40926e+07 137887 28501.8 -8714.32
1 -3.75532 -1.63337 -4.03657 73138.6 -783600 648607 236806 288409 -542932
1 -3.57788 -0.237968 -4.22439 -129747 -634352 929404 -700863 201084 -151070
1 3.27239 -1.26021 -4.86713 176464 -812368 801189 341277 298182 -407974
1 3.05832 -0.379386 -3.70524 103748 368374 -248585 119038 -444217 781643
3 6.67675 -0.200156 -4.84157 43135.4 -6829.13 1.41449e+07 -93987.9 -81656.4 -90750.1
3 6.79267 -1.66808 -4.83207 13173.2 -45892.2 1.42157e+07 118355 -7352.16 -101103
3 -0.364246 -8.45388 -1.73625 -118637 47953 1.41666e+07 223895 -97205.3 3417.94
3 -1.81929 -8.25269 -1.71935 -227478 179831 1.41782e+07 -143465 -73841.3 42209.6
3 1.72751 -8.16173 -3.29943 -177619 126362 1.41344e+07 164687 -65873.8 32109.2
3 -4.20038 -7.1028 -1.69618 189917 -169983 1.41707e+07 115689 5049.77 -13056.9
3 2.29769 -8.05826 -1.7272 115445 -85767.5 1.42199e+07 -198151 -86948.8 -14580.9
3 3.57095 -7.3656 -1.73184 -209850 241747 1.42001e+07 24269.3 -78703.3 -59194.3
3 -5.28973 -6.13836 -1.68659 -170536 193565 1.43893e+07 104155 -57813.2 -50999.5
1 -1.65134 -4.17301 -2.65341 -1.12451e+06 287907 889131 36949 73398.4 235275
1 0.602223 -4.49244 -2.90746 -426174 131736 125974 291733 964430 114052
3 5.32427 -5.40538 -1.71227 199019 -209193 1.43665e+07 -11508.4 -3596.45 -30421
3 5.98095 -4.15892 -1.68943 -95918.6 59537.4 1.42608e+07 -198482 -46646.4 -54188.7
3 -6.61269 -3.79798 -1.68909 181167 -165476 1.43167e+07 -102702 -62496.1 -57579.5
3 -6.8773 -2.36711 -1.69344 18643 -399.63 1.42544e+07 200690 -11582.6 -40308.2
1 -3.25117 -2.32305 -2.82093 321729 879789 -938874 -353344 -350489 -182185
1 -0.98931 -3.44467 -1.56677 923268 82962.8 -675168 257630 448612 -412775
1 0.411762 -3.64541 -1.71392 -326383 199644 445336 -416457 -810404 -64764.9
1 1.36162 -2.58253 -1.44001 302118 -760915 680425 -553749 -224336 204103
1 2.50093 -2.35232 -2.30594 91044.6 268702 -532181 628469 249320 -762635
3 6.29966 -3.6899 -3.28188 54216.2 -150713 1.42078e+07 95068.2 -69519.3 -53043.2
3 6.62346 -2.28075 -3.32326 -35761 2040.85 1.41952e+07 -155114 -35129.4 -111023
1 -2.6835 -1.59384 -1.78857 -464776 691812 148359 -862565 -384941 -214346
1 -2.47512 -0.140849 -1.9602 -44593.9 -8372.19 165783 990893 -52996.7 227854
1 1.66889 -0.27364 -1.67749 613857 -683566 451462 303407 -279749 -612999
1 2.74164 -0.925592 -2.45025 -120163 141777 97538.7 -530106 310292 727086
3 6.6729 -1.69681 -1.72915 116415 -103071 1.41887e+07 100220 -45424.6 -86306.1
3 6.83703 -0.202406 -1.72117 65174.7 -45109.4 1.41871e+07 -84957.5 -81498.6 -70490.5
3 0.224616 -8.40928 -0.167777 -59552.3 42617.7 1.42587e+07 -225864 -160365 -15621.8
3 -3.68818 -7.43565 -0.128325 -236474 214779 1.42011e+07 -31898.3 -16343.3 -51698.8
3 -2.41909 -8.13393 -0.130922 85944.6 -93709.4 1.43005e+07 215504 -2407.81 -3208.17
3 1.69484 -8.22435 -0.120472 -193073 154520 1.41722e+07 154612 -132670 -47071.4
3 4.05244 -7.08253 -0.140547 151780 -224325 1.41791e+07 -139715 -28958.2 -44364.4
3 -6.30985 -4.348 -0.185702 -128914 113056 1.43737e+07 189101 -82339.1 -28813.2
3 -5.60704 -5.6267 -0.182131 210088 -238641 1.43758e+07 -1654.45 -72103.1 -45843.3
3 5.04809 -6.0372 -0.139092 -227932 160812 1.43262e+07 -130100 -17859.5 -73935.9
1 -1.48432 -2.15286 -1.18141 1.02268e+06 -941247 241643 257371 164575 -185239
3 6.14363 -3.67033 -0.0634769 130204 -169251 1.43456e+07 65577.4 5493.99 -103947
3 6.57317 -2.22183 -0.110859 10201 -45889 1.41679e+07 -158148 -23277.7 -86944.8
3 -6.83324 -1.73891 -0.173866 80312.5 -130765 1.4249e+07 -137010 -64287.7 5382.23
3 -6.8716 -0.327175 -0.200762 76047.9 -134626 1.41782e+07 125792 -7269.62 29667
1 -0.5454 -1.08559 -1.00664 -1.05478e+06 809264 -54610.8 348364 -102926 82515.2
1 0.827897 -1.28277 -1.0657 -367179 1.05466e+06 -435621 158491 709477 90974.2
3 -0.342679 -8.35116 1.41229 -10859.8 37632.6 1.42881e+07 226112 -117484 -6410.39
3 -1.83292 -8.27967 1.41849 -136137 164025 1.43193e+07 -178212 -47495.7 37046.3
3 -4.168 -7.03999 1.42378 154692 -189705 1.41357e+07 131439 -50078.5 -22566
3 -5.20888 -6.04867 1.41036 -205772 189999 1.43604e+07 106795 -46815.7 -20296.3
3 2.20934 -8.10679 1.48491 29460.9 -117633 1.40564e+07 -237920 -67396.6 -18062.8
3 3.48087 -7.38767 1.44273 -271358 217708 1.42642e+07 266.128 -11418.6 -23624.1
3 5.33865 -5.53888 1.47945 192092 -228598 1.4291e+07 -16178.7 -15649.7 -94619.5
3 5.98045 -4.21686 1.48765 -100671 73710.9 1.43535e+07 -197192 23926.3 -90553.1
3 -6.5192 -3.79348 1.39034 174428 -202380 1.43988e+07 -106502 -75812.7 15349
3 -6.75416 -2.32661 1.3795 7913.17 -50763.2 1.42547e+07 215807 -66547.2 9428.41
2 -0.543832 -3.29404 2.38381 -366196 220235 372202 -916526 270983 -106752
2 1.70577 -2.81048 2.88186 -863022 999239 211931 119393 -458310 -209944
2 -0.294621 -1.90578 2.08237 -423762 126943 -324479 922446 -348764 241070
2 -1.21944 -0.854279 2.36249 9948.71 228405 -288201 852245 479431 -534413
2 1.1035 -1.61315 2.34832 554129 -880221 166783 -602069 185657 160208
2 1.47901 -0.389184 2.85756 932972 -493961 -209320 -207045 238497 -737127
3 6.62205 -1.63376 1.51064 95354.4 -136737 1.41447e+07 87322.1 -18440.4 -85954.3
3 6.75921 -0.165068 1.50357 37689.2 -84393.5 1.41856e+07 -99639.8 -111806 -80554
3 -0.361453 -8.38882 4.56438 -9003.77 -60832.8 1.42577e+07 226848 -27562.3 -37037.2
3 -1.82492 -8.20614 4.59287 -148746 88268.3 1.42861e+07 -202882 -35495.4 3346.65
3 0.186065 -8.35028 2.98954 -52546.9 58395.6 1.42561e+07 -227136 -65519.6 -37686.8
3 1.62402 -8.17218 3.07315 -187047 168766 1.40099e+07 139542 -45062.7 -33749.6
3 -4.22739 -7.07856 4.55105 174701 -251122 1.4179e+07 41907 -55446.8 -33262.1
3 -3.62056 -7.31658 3.00025 -201284 221543 1.41348e+07 -38560.8 -78410.7 -12093.1
3 -2.37834 -8.05934 3.00287 110905 -75093.4 1.43103e+07 199082 -66664.6 13206.3
3 3.91863 -6.92417 3.03896 188611 -182044 1.42992e+07 -120783 -29895.7 -68392.8
3 2.19348 -7.97968 4.64516 102336 -149932 1.40181e+07 -191353 -54433.3 -56943.9
3 3.44943 -7.34074 4.61376 -235048 165130 1.42643e+07 82776.8 -44628 -66065.4
3 -6.32147 -4.33593 3.00891 -102354 98448.7 1.43005e+07 195834 -83085.3 -17675.3
3 -5.70935 -5.64604 2.96837 231718 -216479 1.42847e+07 -2495.47 -59252.4 -55004.9
3 -5.37884 -6.09273 4.58118 -255024 209561 1.43429e+07 9791.82 -71446.2 -7254.92
2 -1.83944 -4.56141 4.06578 -426397 -424972 852340 691459 -370697 7463.14
2 -0.585785 -5.09213 4.55038 -740951 62037.4 728959 -174912 -790174 -215813
2 0.661277 -4.75624 3.94439 878778 276840 -997860 213875 143968 243199
3 5.01915 -5.9896 3.04323 -189689 202656 1.42525e+07 -113642 -1090.8 -107736
3 5.48636 -5.6143 4.62207 142167 -246142 1.42575e+07 99999.9 -18587.6 -118393
3 6.02517 -4.27123 4.64317 -249023 124223 1.42161e+07 -121942 40839.9 -136531
3 -6.6155 -3.74746 4.59033 62499.6 -188424 1.41944e+07 -173338 -75895.2 14702.8
3 -6.83268 -2.32587 4.59555 -143111 4926.48 1.43022e+07 198845 -96543.2 65739
2 -2.72345 -2.52257 3.31531 614303 -238677 34532 43711.5 -527037 749431
2 -3.39718 -2.88805 4.51489 -658924 -100550 428167 505938 526219 -705735
2 -1.76684 -3.56026 3.00337 35017.1 793978 -412414 -360750 846455 -234017
2 0.669662 -3.83829 2.92955 1.05736e+06 -556161 29736.1 540749 -41895.6 554347
2 2.74657 -2.74702 3.79274 160448 888046 -808724 -8224.18 -398602 -506031
3 6.16474 -3.6633 3.06589 147443 -127225 1.43171e+07 82539.9 64987.4 -118023
3 6.59898 -2.27585 3.11521 16769.2 -6864.4 1.40955e+07 -150014 -7466.5 -67687.3
3 -6.76816 -1.76504 2.97648 95627.3 -119687 1.42715e+07 -143238 -68972.4 5180.41
3 -6.98557 -0.321671 2.96553 96711.1 -131669 1.41859e+07 125279 -27564.9 -29942.4
2 -2.48265 -1.21078 3.027 440828 -642379 588196 -646790 -332959 145048
2 -2.8413 -0.0751646 3.8873 -484716 1.04967e+06 -285740 62361.5 758574 306718
2 3.15837 -1.42042 4.32956 313810 -257716 311096 190496 75072 1.01856e+06
2 2.57359 -0.24936 3.82432 -566964 178998 697514 657111 -32075.1 444014
3 6.66597 -1.73655 4.6552 30379 -87833.3 1.40659e+07 108490 19112.3 -57622.1
3 6.81595 -0.266171 4.67048 54246.8 -24521.4 1.42953e+07 -95022.8 -106619 -59645.3
3 0.14288 -8.31215 6.18653 -1661.6 -50190.5 1.42498e+07 -232867 -12443.5 37003.2
3 1.5786 -8.06798 6.21535 -151540 101879 1.40547e+07 192464 -49499 -6363.9
3 -3.7104 -7.43859 6.13308 -244392 128420 1.42017e+07 -75189.4 12481.2 34190.3
3 -2.3509 -8.03829 6.16924 109207 -109808 1.42873e+07 201990 -28650.9 36664.7
3 3.95502 -6.94826 6.20151 171228 -226758 1.4204e+07 -65423.4 -76554 -28545.3
3 -6.28661 -4.24534 6.17176 -162064 97766.3 1.41666e+07 174794 11552.2 60712.8
3 -5.63167 -5.56099 6.14183 193673 -218945 1.43727e+07 -25165.7 -39998.4 56492.5
2 -2.55563 -4.20149 6.44778 444262 376206 -600325 -655696 -609936 -318920
2 -0.371407 -5.17378 6.0117 53790.4 125986 16317.7 -59326.4 974922 281501
2 1.01848 -4.92183 6.24087 482322 196463 -594869 120321 -764644 -316534
2 1.65083 -4.64525 4.95787 -982146 -135904 900347 -435426 341293 121594
3 5.03244 -6.01636 6.17985 -226572 198214 1.42604e+07 -70042.3 -102271 -53748.3
2 -2.86395 -4.13232 5.05674 446330 165324 -908483 -458962 80290.1 501842
2 2.67021 -3.68115 4.92457 -56101.8 -1.20431e+06 860667 -195102 110120 58998.9
2 3.09648 -2.9787 6.09302 -11630.1 685013 -1.03481e+06 203664 -15967.4 497606
3 6.18298 -3.7062 6.20826 24834.4 -199046 1.41596e+07 158212 -85686.9 -31031.9
3 6.61076 -2.30835 6.26634 -159506 -8306.77 1.4104e+07 -161719 -80575.5 -57005.7
3 -7.00438 -0.304826 6.18865 1117.23 -68638.6 1.43698e+07 152614 32773.9 -7096.25
3 -7.00605 -1.75396 6.1866 -65134.6 -59185 1.4336e+07 -153516 57642.8 63405.1
2 -3.62173 -1.78338 5.42785 -118359 -614207 175643 -186963 -56941 -1.01382e+06
2 -3.42154 -0.415592 5.10864 58765.3 663612 -998851 126676 -16039.8 579358
2 3.43171 -1.60293 5.75218 137459 -474720 376632 -136069 -47142.7 -953151
2 3.0173 -0.59021 6.61553 -386201 135453 527944 506845 476897 -704039
3 -0.430829 -8.45596 7.77418 -78366.3 51782.1 1.42111e+07 223422 -56926.1 36829.6
3 -1.87221 -8.30229 7.78455 -173865 165115 1.43264e+07 -144368 -36598.3 36373.9
3 -4.17307 -7.01393 7.70743 164784 -193507 1.42393e+07 116496 25843.4 23976.4
3 2.11737 -7.94117 7.7789 96864.5 -90916.8 1.41106e+07 -214164 -49705.7 -17385.6
3 3.48265 -7.3174 7.72416 -220548 225263 1.42458e+07 29683.3 -69299.1 -27646.4
3 -5.30465 -5.98912 7.69748 -211099 205838 1.42845e+07 106140 -12120.6 -1247.61
2 -1.31183 -4.79911 6.90042 199717 -274548 464763 632550 664221 -261681
2 1.42589 -4.25749 7.3913 868285 -603639 131664 280854 -273793 -699806
3 5.37331 -5.56011 7.8016 199862 -248775 1.42892e+07 -29115.3 -54890 -54346
3 5.93705 -4.22261 7.78777 -119223 45128.3 1.41593e+07 -203747 -100388 -43864.8
3 -6.55644 -3.75024 7.73998 170576 -215755 1.42271e+07 -112468 -17423.9 48942.1
3 -6.83924 -2.33854 7.73984 -9838.23 -60779.3 1.43709e+07 210879 65501.1 26392.5
2 -2.80197 -3.0812 7.29403 -593225 281296 683492 612938 -77184.5 420464
2 -1.88816 -3.07169 8.41578 929358 -372371 -219734 -231531 199857 -748851
2 -0.907489 -4.09386 8.11357 -500045 755894 263448 -203862 -684048 337413
2 0.461953 -3.81566 8.33025 -353215 312918 435445 -731190 160005 497796
2 2.45269 -3.31569 7.27296 -487007 1.02784e+06 -306534 164798 770635 190194
2 2.13983 -2.2447 8.1856 411027 -682080 558450 -583376 -302736 37129
2 -3.37729 -1.96678 6.79464 223354 -208640 165982 123506 24985.3 937599
2 -2.98366 -0.67847 7.38377 123054 908833 -767656 -98546 -410165 -651038
2 -2.10576 -0.603101 8.43751 -938668 1.0155e+06 205446 17721.9 -469412 -291318
2 -1.49915 -1.7927 8.9326 577866 -811377 149177 -665134 199426 134806
2 0.206024 -0.164393 8.81904 -455905 127434 351708 -913715 241460 -96767
2 2.40262 -0.897368 7.86717 635357 -287102 111127 78251.7 -581679 697080
3 6.72924 -1.72092 7.81779 112716 -141804 1.41138e+07 83463.8 -107641 -27153.9
3 6.91973 -0.231384 7.79053 90899.1 -105734 1.42419e+07 -89033.9 -54409.6 -24863.2
3 0.0704286 -8.34901 9.37572 -84414.3 40268.9 1.43223e+07 -229252 -85241.5 57.0623
3 -2.46209 -8.09026 9.36768 72462.5 -102139 1.43501e+07 214873 -28240.9 1021
3 -3.69401 -7.30975 9.29963 -222092 215768 1.42817e+07 -13575.7 -12435.4 8276.11
3 1.52312 -8.1557 9.35985 -225139 167364 1.41119e+07 148148 -68229.2 -47012.4
3 3.97515 -7.08693 9.34676 164828 -200248 1.42451e+07 -128238 -33301.6 -58494.7
3 -6.32919 -4.30844 9.27905 -130137 44540.2 1.43144e+07 240629 -44966 39086.3
3 -5.65451 -5.6004 9.30079 188128 -300868 1.42033e+07 39224.7 -61768.5 14486.3
3 5.03411 -6.06737 9.382 -217174 180940 1.43297e+07 -125297 -16115.2 -26775.4
2 0.81855 -2.53879 8.79855 -8576.19 226231 -286884 879476 477691 -557820
3 6.16567 -3.6487 9.33946 154593 -188727 1.4232e+07 62657.2 -51559.2 -62279.5
3 6.52203 -2.22446 9.33127 14436.3 -36256.9 1.41362e+07 -171004 -30987.9 -30489.6
3 -7.01303 -0.207444 9.29244 94632.8 -127728 1.44531e+07 120310 2073.97 40161.6
3 -6.89549 -1.66764 9.30755 88144.5 -127454 1.43774e+07 -133944 38068.9 25037.6
2 -0.122866 -1.55619 9.19679 -444867 61398.7 -357933 914655 -364235 239086
3 6.87567 -0.178538 10.9203 43425.8 -34890.8 1.43656e+07 -98079.5 -28108.4 -52457.6
3 -0.477734 -8.55343 10.9188 -37217.5 37932.5 1.43434e+07 219449 -41047.2 6281.24
3 0.0737149 -8.31264 12.5145 -50081 58104.2 1.42859e+07 -229006 -610.396 -20397.6
3 -4.27049 -7.03106 10.8938 148637 -216356 1.429e+07 136409 -17453.2 24288.1
3 -3.79862 -7.37111 12.471 -180723 217063 1.42506e+07 -31134.6 -66000.6 -5357.14
3 -2.50636 -8.0659 12.4915 132378 -68813 1.43467e+07 188249 -54547.4 -10834.2
3 -1.90871 -8.28868 10.9262 -172636 166186 1.43573e+07 -158507 -56123.9 8399.15
3 1.482 -8.06032 12.5183 -175588 176704 1.42195e+07 152024 -37349.9 -14047.3
3 2.00885 -7.91519 10.9361 6299.04 -122437 1.41692e+07 -244955 -85841.5 -26629.8
3 3.39317 -7.37325 10.93 -315404 196407 1.41878e+07 -14949 -71705 -97147.2
3 3.92802 -7.02686 12.493 170854 -207576 1.40993e+07 -141080 -78594.4 -106402
3 -6.32066 -4.26923 12.4555 -95843.6 87775.8 1.43383e+07 203594 -43746.8 1210.22
3 -5.29786 -6.01911 10.9208 -255435 169790 1.41852e+07 131767 -37390.7 11942.5
3 -5.71633 -5.585 12.5003 225253 -243174 1.41593e+07 10920.6 -33713.5 3484.99
3 5.26771 -5.49783 10.9227 204440 -218744 1.43781e+07 12543 -29676.6 -24251.3
3 5.83475 -4.11786 10.9013 -114297 90764.4 1.4241e+07 -185503 -35369.1 -13953.8
3 4.96514 -6.0174 12.4834 -202079 185919 1.4283e+07 -124310 -57220.1 -69128.6
3 -6.5267 -3.70228 10.8755 159636 -225138 1.43824e+07 -105483 -19233.9 14905.6
3 -6.84845 -2.23434 10.8939 360.771 -68751.8 1.43794e+07 220829 37919.7 14098.9
1 -1.15507 -2.87258 12.5363 878769 38723.6 -549981 -459116 522745 486374
3 6.08635 -3.53853 12.4628 161059 -163034 1.42332e+07 67734.7 -11158.2 -11495.8
3 6.56766 -2.17128 12.4603 21571.2 -23085.9 1.41301e+07 -158816 -21047.9 -44081.4
3 -7.09146 -0.220664 12.458 105936 -112843 1.43549e+07 110039 1392.06 35238.6
3 -6.90996 -1.65909 12.4778 97132.9 -113924 1.43682e+07 -135075 4851.18 11424.9
1 -0.545016 -1.62109 12.2177 808267 -902212 192755 -621159 151909 58865
1 -1.16195 -0.350508 12.3498 -1.14284e+06 840657 -61729.8 31409.2 -130770 57527
1 0.895145 -1.39614 12.3814 -140897 325982 141169 1.02112e+06 -226870 289350
1 1.0769 -0.00446079 12.6865 -370279 395858 248310 -897203 -218438 -199956
3 6.78935 -1.65211 10.9031 87246.7 -99723.5 1.4134e+07 95205.3 -44983.9 -34114.4
3 -0.509119 -8.39033 14.0537 -2193.32 -30257.8 1.42574e+07 226903 234.618 -75216.3
3 -4.25449 -6.99326 14.0267 186900 -219006 1.42354e+07 51353.8 -103939 -61967.4
3 -1.93416 -8.31961 14.0853 -134827 92096.8 1.425e+07 -188751 -46205.6 -47044.1
3 1.96324 -7.72159 14.0723 105873 -127485 1.42328e+07 -196893 -68550.5 -28571
3 3.40981 -7.29774 14.0949 -229192 180978 1.40848e+07 75533.6 -44280.9 -97082.4
3 -5.29134 -5.93826 14.0576 -200024 217207 1.41881e+07 49786.7 -144137 -11846.8
1 -1.02506 -4.39179 14.3278 660234 -270358 -572542 153300 -562083 511263
3 5.42556 -5.55664 14.0222 181758 -222737 1.4188e+07 37950.9 -1261.6 -95188.5
3 5.86443 -4.13316 14.036 -193631 90392.4 1.42222e+07 -128945 35863.8 -27111.7
3 -6.60662 -3.6772 13.9682 85499.7 -157906 1.4261e+07 -151704 -113055 -25781.3
3 -6.92815 -2.20622 13.995 -72967.7 11365.8 1.43554e+07 196045 -9764.92 26427.8
1 -2.34549 -3.7764 14.3882 -608972 272948 110125 -276781 950307 -199467
1 -2.44558 -2.88659 13.233 -45407.2 97683.6 445183 546116 -758557 127913
1 -0.30254 -3.79448 13.2538 -1.05441e+06 392360 847785 175509 5161.42 -292974
1 1.09092 -3.61861 13.4829 -386975 -142332 649420 -500243 -417529 -620957
1 1.67003 -2.3866 12.9813 533532 636176 -868199 505779 -195745 470279
1 1.7093 -3.98421 14.7476 90739.2 -387534 -154057 -12174.9 590848 839451
1 -2.41588 -0.349148 13.0112 -383790 1.08463e+06 -432043 12415.4 708246 18685.6
1 -3.67247 -1.36366 14.6869 -76006.2 301758 -274723 -643131 350840 870267
1 -3.06414 -1.61246 13.4239 559072 -747566 602746 302773 -249525 -356668
1 2.65034 -1.97386 13.9597 -67282 -876891 834870 -471337 344202 344394
1 2.92689 -0.597186 14.2558 85705.3 -892733 922585 504487 265283 -70279.3
3 6.7946 -1.58176 14.0158 50166.8 -109211 1.41225e+07 94564.6 12574.6 -32728.5
3 6.91531 -0.108211 14.0163 53435.5 -63601.1 1.4276e+07 -102973 -41279.6 -23122.8
3 0.0422682 -8.29681 15.6455 75412.8 -116992 1.42389e+07 -202132 -24579.7 -2115.15
3 -3.80257 -7.27128 15.6173 -196650 128196 1.42407e+07 -116571 -35154.2 9217.46
3 -2.57202 -8.04012 15.6414 121473 -158556 1.41893e+07 165507 -37584.9 33041.8
3 1.41003 -7.99782 15.6454 -63614.4 99708.7 1.4257e+07 221585 -7684.02 10312.8
3 3.94298 -6.99747 15.6162 177818 -309034 1.41007e+07 2438.49 -101463 -7122.36
3 -6.42581 -4.23159 15.5755 -322876 148275 1.43592e+07 89411 1052.66 68774.5
3 -5.63357 -5.46032 15.6315 120377 -265736 1.42246e+07 -149783 -45225.8 57226.4
1 -0.457146 -4.74462 15.5798 634405 -273170 -548681 -214550 -568809 -525162
1 -1.0908 -4.45577 16.8084 -1.07589e+06 424818 831107 -81470.5 62474.7 296813
1 0.97467 -4.5949 15.7786 -532343 268247 100041 342060 945746 162095
3 5.07421 -6.07558 15.5944 -311424 182790 1.41384e+07 -1737.57 -93126.4 -45531.1
1 -2.99582 -3.51667 15.6052 62512.4 -437625 -131466 21642.9 500829 -856304
1 -3.66296 -2.26321 15.808 -257220 304295 -732980 -108651 -550958 631884
1 -2.35021 -3.88971 16.845 -325829 -141206 574680 477631 -392142 656181
1 2.98527 -2.52843 16.319 72206.5 198946 -226647 661678 233997 -884174