ITEM: TIMESTEP
40000
ITEM: NUMBER OF ATOMS
2928
ITEM: BOX BOUNDS pp pp pp
-2.3370351028392232e+01 2.3370351028392232e+01
-2.3310244031646818e+01 2.3310244031646818e+01
-1.1760625200000000e+01 1.2209226120000000e+02
ITEM: ATOMS type x y z f_avestress[1] f_avestress[2] f_avestress[3] f_avestress[4] f_avestress[5] f_avestress[6]
3 -3.17908 -6.46455 -11.5346 80508.7 -126704 1.08547e+07 142451 26106.9 -31907.5
3 -1.23967 -7.17606 -10.1151 65104 -84989.1 1.0861e+07 169495 -17071.2 -69444.8
3 -2.61914 -6.76356 -10.1254 -195993 177596 1.08127e+07 -20521.1 4368.85 -50378.3
3 -0.636605 -7.42993 -11.6135 -182666 165763 1.08982e+07 -127260 -8386.97 -13533
3 0.739183 -7.8472 -11.6006 -33897.2 31652 1.08129e+07 223144 5246.01 -19271.1
3 1.27079 -7.93316 -10.1612 -112314 81637 1.07878e+07 -225307 25381.5 -47296
3 2.74356 -7.82018 -10.1344 -168513 139055 1.07457e+07 178382 28816 20183.3
3 3.42204 -7.71832 -11.6521 30269.1 -74014.3 1.07576e+07 -254373 10538.9 40037.8
3 4.70291 -7.10973 -11.6651 -252484 233025 1.077e+07 56502.7 -17912.4 79908
3 5.15464 -6.82866 -10.1688 183343 -193464 1.07281e+07 -137168 8557.7 56629.2
3 -4.50836 -4.96702 -10.0433 120617 -158888 1.08484e+07 105156 35258.4 9829.03
3 -4.19353 -5.42016 -11.4876 -155446 121288 1.08888e+07 81391.7 41082.2 -11195.1
3 6.6365 -5.36025 -11.5922 231383 -313973 1.07349e+07 -34197.2 -25126.9 81377.4
3 6.15911 -5.77046 -10.1375 -245570 246506 1.0728e+07 -85125.1 6211.31 75538.6
3 -5.75534 -3.2761 -11.547 151890 -222098 1.08801e+07 29034 49539.2 73446.2
3 -5.29839 -3.76653 -10.0491 -100363 54757 1.08236e+07 132223 77497.2 44169.4
1 -1.20938 -2.8924 -9.74737 277299 533230 -577710 -533716 321248 676669
1 1.66281 -3.46159 -10.0031 956570 -425180 -401549 333289 -252812 605379
1 1.06476 -2.47418 -10.7718 710372 -1.01322e+06 -201391 409929 -107314 -230123
3 7.49572 -4.12752 -11.6057 -146558 82730.4 1.0714e+07 -246601 -30044.2 97509.7
3 7.60191 -3.57488 -10.1009 197332 -231724 1.06986e+07 137802 -11983.7 79033.4
3 7.83208 -2.14113 -10.1746 -6906.64 -45362.2 1.07544e+07 -248585 20123.8 57762.7
3 -7.34719 -0.193496 -10.0584 -68951.3 -6664.38 1.08457e+07 200902 49167.8 63813.2
3 -6.44652 -1.99383 -11.4892 -107059 10056 1.08296e+07 146252 72952.4 71378.6
3 -6.70211 -1.50739 -10.0684 167388 -228164 1.08314e+07 -80782.7 77281 71576.5
1 -0.383132 -2.1296 -10.6373 -651704 327562 52187.2 -782756 26428.7 178435
1 -0.510634 -0.677032 -10.7355 47283.2 56181.8 62069.8 931035 333719 -286766
1 0.83975 -0.139938 -10.9502 726577 -564844 174487 -751963 -316184 -173290
1 1.75321 -1.2154 -10.9427 -1.05998e+06 940248 258904 129364 101493 103874
1 2.97342 -0.944573 -10.3769 -149077 1.00677e+06 -414307 267874 -558142 379789
3 7.8667 -1.52323 -11.6813 94475.2 -127240 1.07571e+07 214976 -12974.9 66168.3
3 7.52994 -0.114853 -11.6111 158601 -185827 1.08021e+07 -171527 49781.7 54765.1
3 -3.21284 -6.52426 -8.61349 63150.2 -215839 1.07689e+07 33703 -17172.9 -36581.7
3 -0.758321 -7.50476 -8.61428 -174777 62057.8 1.08257e+07 -208015 4924 -39337.9
3 0.655936 -7.80386 -8.6735 9334.42 -134606 1.07903e+07 220773 41577 -19762.2
3 3.2997 -7.67832 -8.71574 105482 -166692 1.07335e+07 -199835 21341.5 39999.4
3 4.65123 -7.24642 -8.75297 -226253 178721 1.07219e+07 120455 5636.04 67059.9
3 -4.17608 -5.49661 -8.62159 -186978 131772 1.0846e+07 23132.1 11370.4 25894.9
1 1.57599 -4.34971 -7.80404 684806 -168088 -269657 -499174 626023 523528
3 6.65598 -5.36964 -8.77419 229860 -269896 1.06991e+07 52479.6 14028 75649.6
3 -5.63287 -3.2221 -8.63818 154171 -199144 1.08124e+07 26739.1 60309.8 50137.5
1 -1.13117 -3.78498 -7.57083 396391 -654600 207239 -114271 -414181 814519
1 -2.12395 -2.76495 -7.60736 23436.7 797310 -623979 -34334.5 583287 -350205
1 -0.573108 -3.96554 -8.92627 -108717 173366 303884 493795 303668 -692676
1 0.803958 -4.17569 -9.04654 -874602 592523 654829 88186.2 -204748 -293894
1 2.95517 -3.2186 -9.30706 -436599 347865 514206 -585435 512042 -88989.1
1 2.82423 -3.67003 -7.959 39194.6 292639 6805.14 600554 -822929 29548.8
3 7.3917 -4.15333 -8.70509 -184165 150874 1.06942e+07 -173856 17568.9 83410.6
3 -6.3206 -1.95756 -8.6772 -68076 48600.3 1.08098e+07 145649 72611.9 72394.5
1 -2.12279 -2.17034 -8.92167 271234 -774793 799830 446537 -294043 -129287
1 -2.37797 -0.797258 -9.06794 90824.3 -390162 646902 -366743 -586937 -453294
1 3.65547 -1.97405 -9.55505 372835 -146092 326404 -497136 28530.6 -696222
1 4.32459 -1.31507 -8.47891 182935 -315470 160300 433037 -37809.5 776248
3 7.85951 -1.52271 -8.7388 10613.4 -44542.7 1.07346e+07 231647 -9579.43 55517.6
3 7.69568 -0.109935 -8.69046 -4420.2 -90012.4 1.07704e+07 -201713 60544.7 75502.8
3 -3.17364 -6.49991 -5.75052 107331 -103426 1.08183e+07 115935 2774.31 55379.3
3 -1.32859 -7.35647 -7.19773 98256.8 -161108 1.0807e+07 144966 20981.2 64952.1
3 -2.66872 -6.81937 -7.21799 -207338 95274.9 1.08123e+07 -105018 18066 56737.6
3 -0.702938 -7.53099 -5.78673 -221753 183011 1.0774e+07 -129724 60497.7 52988
3 0.694836 -7.87447 -5.73614 -72233.8 24705.9 1.07917e+07 222018 47221.7 51680.8
3 1.28326 -7.85077 -7.21824 -61484.5 -25725.2 1.07782e+07 -222382 56286.3 91286.1
3 2.71488 -7.84324 -7.22995 -141126 99316.2 1.06947e+07 201509 -1989.02 88730.9
3 3.39178 -7.74065 -5.86376 43858.8 -49215.4 1.07093e+07 -250999 23899.1 54937.4
3 4.70242 -7.12086 -5.84583 -246391 236796 1.07036e+07 38659.7 13564 74110.7
3 5.18224 -6.85399 -7.27509 196029 -226910 1.07161e+07 -102373 3915.41 97983.1
3 -4.6174 -4.9388 -7.17899 136943 -134575 1.08255e+07 48231 23369.3 54220
3 -4.1714 -5.45661 -5.73589 -131221 136521 1.08717e+07 53897.1 -8431.09 29952
1 1.01969 -4.37889 -6.52671 591884 -55713.7 -768199 -39053 576419 -320405
3 6.27028 -5.93039 -7.31554 -241476 239180 1.06966e+07 -49043.7 167.978 92409.2
3 6.68859 -5.4202 -5.76765 275052 -233906 1.07059e+07 -12186.8 25121.3 73517.1
3 -5.41803 -3.75255 -7.18617 -81934.5 84863.4 1.08297e+07 83537.3 31325.2 60906.4
3 -5.6676 -3.1893 -5.79254 172040 -155601 1.08544e+07 -1188.35 31089.2 37521.9
1 -0.406683 -4.10243 -6.43839 -357073 35424.7 94924.3 -86468 -942583 340063
1 2.93533 -3.08079 -5.58642 -654729 -351773 836433 -606157 166707 342453
1 3.45776 -3.05326 -6.94661 419035 53266.7 -506278 179597 -552638 -608781
3 7.42571 -4.16034 -5.73771 -134655 147971 1.07055e+07 -196627 -261.962 53626.8
3 7.59388 -3.56606 -7.22061 139257 -153454 1.07113e+07 175988 -9299.87 82052
3 7.86855 -2.21073 -7.25292 -36939.9 58074.3 1.07487e+07 -238378 -37617.4 72277.9
3 -7.21002 -0.123326 -7.15855 -57180.4 31005.3 1.08357e+07 161338 34968.7 55129.4
3 -6.65749 -1.41726 -7.17433 173230 -182793 1.07957e+07 -100939 62046.8 63431.3
3 -6.43498 -2.00359 -5.75861 -75473.8 68493.5 1.08202e+07 111330 56223.2 49832
1 -2.31408 -1.99737 -6.50381 98630.7 726636 -430804 -323634 -384504 -567122
1 -2.59265 -0.538251 -6.63135 293586 -211568 198001 470255 -2559.08 767692
1 4.26524 -1.87123 -7.17103 -159729 222936 -110649 -69195.8 727561 697622
1 4.13164 -1.08984 -5.91889 -100597 -550368 719600 -437267 -558160 -461533
3 7.98028 -1.60835 -5.8382 90879.7 -34362.8 1.07704e+07 203645 -10212.7 62884.4
3 7.74044 -0.155358 -5.74694 138919 -96279 1.07856e+07 -184678 -14741.8 21021.4
3 -1.27814 -7.32785 -4.35131 28240.3 -76545.4 1.0801e+07 202396 31847.6 10217.1
3 -2.67664 -6.86979 -4.24627 -225191 181469 1.08572e+07 9561.31 -2152.28 8721.01
3 1.33853 -7.98517 -4.30569 -117151 94716.2 1.08096e+07 -227622 48815.2 39848.6
3 2.78187 -7.83508 -4.28917 -193674 149549 1.07382e+07 183998 35672.1 40709
3 5.15722 -6.86301 -4.30424 179268 -208568 1.07446e+07 -166382 37115.6 37379.6
3 -4.55564 -4.91426 -4.28821 125103 -123052 1.09162e+07 64661.9 -15953.1 20825.8
3 6.2393 -5.89512 -4.32798 -249937 227557 1.07215e+07 -105187 48042.9 18236.2
3 -5.39776 -3.7234 -4.31821 -100884 99683.7 1.0869e+07 81946.5 19461.8 19542.1
1 -1.5441 -2.24416 -5.30759 550412 -910969 722116 115117 338132 -94875.7
1 -0.588104 -3.26104 -5.1778 -152250 -32213.1 444689 438612 827429 -351052
1 0.662124 -3.00551 -4.62185 852122 211975 -760945 -345936 -497512 -229650
1 1.66755 -3.67369 -5.41249 -1.09333e+06 1291.92 886471 253959 -118146 192054
3 7.63667 -3.56243 -4.23142 195736 -247904 1.07453e+07 126402 39762.4 37439.3
3 7.99667 -2.16981 -4.21416 16357.9 -59166 1.08011e+07 -260575 9276.08 33929
3 -7.21529 -0.0665302 -4.34628 -59881.9 59217.4 1.08059e+07 160788 44819 82788.9
3 -6.70509 -1.41852 -4.30348 162058 -160744 1.08145e+07 -109413 51539.5 55451.7
1 -1.25273 -0.960393 -4.68071 -146698 727703 -365120 272251 -528684 344341
1 0.99191 -1.70545 -4.1332 702415 -581771 173265 -688173 -275880 -218919
1 0.0481431 -0.705136 -4.28795 -1.00771e+06 871082 140826 221017 126964 112147
1 2.34365 -1.14599 -4.23361 51334.9 280752 66378.1 934763 372326 -246397
1 3.25566 -1.79686 -5.05507 497117 574239 -933460 369496 368455 -104659
3 -3.10927 -6.39996 -2.88433 96553.2 -133859 1.08891e+07 134854 5431.89 -5469.43
3 -2.64541 -6.80832 -1.45197 -203279 205788 1.08246e+07 -1899.93 31220.6 -9113.69
3 -1.29554 -7.39662 -1.41199 63582 -79975.8 1.08105e+07 193806 37757.7 4042.68
3 -0.705423 -7.60146 -2.86031 -223368 171402 1.08165e+07 -125592 28346.6 14643.1
3 0.710964 -8.00663 -2.83484 -74764.2 24278.8 1.07932e+07 226433 23511.3 58615.1
3 1.30458 -8.14365 -1.34615 -131591 91107.9 1.07701e+07 -234280 44961.2 56274.2
3 2.65926 -7.81709 -1.31499 -196735 153619 1.07877e+07 173420 37586.6 57177.8
3 3.29688 -7.67467 -2.82152 22719.7 -84198.1 1.07576e+07 -252890 22990.8 57765.9
3 4.64735 -7.25424 -2.76393 -283462 221589 1.07315e+07 44742.5 30774.2 22980.9
3 5.19791 -6.92684 -1.39774 176423 -214706 1.07411e+07 -192726 32610.7 22808.1
3 -4.16691 -5.41464 -2.87996 -167823 114806 1.09181e+07 65809.7 503.635 8196.88
3 -4.5479 -4.97021 -1.41601 127573 -141577 1.08942e+07 82153 39853.7 16365.7
3 6.77482 -5.46488 -2.86547 228269 -306153 1.07285e+07 -27232.7 35873.3 38503.8
3 6.27605 -5.95169 -1.33388 -257918 206632 1.0738e+07 -106591 36418.7 45523.3
3 -5.71221 -3.26405 -2.86943 156150 -166981 1.08735e+07 -844.444 36888 35594
3 -5.37537 -3.78478 -1.43439 -112343 88597 1.08644e+07 89089 74058.9 43271.4
3 7.32371 -4.13753 -2.86791 -165366 98109.2 1.07562e+07 -238010 20042.8 40298.6
3 7.55563 -3.62245 -1.36128 197243 -249152 1.07547e+07 118301 11599.9 33448.6
3 7.76075 -2.2118 -1.35561 10737.7 -57177.5 1.07908e+07 -257627 5286.65 17717.2
3 -7.23852 -0.124659 -1.42747 -59031.8 45902.8 1.0786e+07 163164 66026.4 50237.6
3 -6.42963 -1.96999 -2.83955 -95279.2 70540.7 1.08236e+07 109695 67899.8 42533.3
3 -6.60481 -1.41598 -1.40607 162556 -165003 1.08119e+07 -99515 87229.5 48435.3
3 7.90142 -1.57541 -2.79188 91118.5 -147348 1.08192e+07 220966 9395.12 29727.1
3 7.75309 -0.14151 -2.82911 127149 -197333 1.08387e+07 -171656 -5333.24 9309.97
3 -3.10567 -6.49303 0.0359621 120473 -110343 1.08085e+07 106974 6661.42 -50719.2
3 -0.714031 -7.6446 0.0161434 -177335 175658 1.07746e+07 -132375 28884.4 -40672.9
3 0.687807 -8.02053 0.0475356 -35273.4 32028.8 1.07497e+07 224605 58229.1 32454.3
3 3.27495 -7.64668 0.105436 58505.1 -68809.1 1.07626e+07 -234338 46122.4 29658.8
3 4.65386 -7.18736 0.109733 -248959 248971 1.07348e+07 62848.3 62515.4 11316
3 -4.17996 -5.51728 0.0398272 -131329 148014 1.08498e+07 56534.9 26835.5 -14083.8
3 6.65258 -5.46125 0.144902 252587 -261793 1.07179e+07 -25299 59730.5 11583.3
3 -5.59912 -3.2412 0.0240765 174431 -147593 1.08336e+07 2913.09 78758.4 45752.2
2 -1.14383 -2.76713 0.144737 523290 -580098 294897 -388195 -197679 823775
2 0.115816 -2.67875 -0.557582 94051.3 -80463.1 266084 680290 111560 -671752
2 1.22703 -3.49162 -0.350884 -570551 555937 392308 538455 -509769 -185210
2 2.53021 -3.00417 -0.38748 1.02545e+06 -464365 -167931 -58816.6 161980 636347
2 3.27463 -3.51037 0.686595 -798002 581173 619377 -447089 149515 -329149
3 7.42621 -4.24655 0.142121 -158351 135730 1.07102e+07 -221854 43196.4 12664.4
3 -6.27049 -1.96998 0.0584557 -53583.8 78595.5 1.08098e+07 114708 65386.2 51094.2
2 -1.63128 -1.40894 0.231994 -150903 970767 -517475 228718 552200 -325715
2 -0.745844 -0.52069 -0.511383 524147 -993205 678361 230795 -290366 -186230
2 0.356597 -1.31638 -1.01263 -211276 510986 -422310 -552301 473444 618454
2 1.64844 -0.793217 -1.13607 -933833 602962 12700 -624666 -262101 90495.6
2 2.73788 -1.69654 -0.691428 891320 -949624 56202.1 93389.9 43489.6 -307737
2 3.76863 -0.896238 -0.101341 -852189 910788 275456 548698 -107526 333313
3 7.83685 -1.58528 0.0788946 84841.4 -93743.8 1.07613e+07 212286 33472.3 17202.9
3 7.80863 -0.141735 0.0765993 116314 -146173 1.08283e+07 -180006 61485.4 39128.5
3 -1.29158 -7.46646 1.5218 51745.3 -224828 1.07848e+07 132396 45748.1 -37307.6
3 -2.62568 -6.88936 1.52425 -260756 125168 1.08271e+07 -82314.1 31435.2 -37548.2
3 1.27775 -8.02445 1.58902 -71373.1 66985.8 1.07552e+07 -220797 40842.9 14569.3
3 2.72487 -7.93359 1.5461 -129452 77520 1.0748e+07 186549 61865.6 -7742.55
3 5.17666 -6.85521 1.61988 187078 -212547 1.07108e+07 -151499 84356.9 -2974.57
3 -4.57664 -5.04382 1.50984 102600 -137005 1.08558e+07 53424.7 9185.52 -25527.4
2 -0.068438 -4.39143 1.55712 319778 24708 -552241 -118127 661040 -425564
2 1.12359 -4.40865 0.827014 105191 4943.36 109727 -677760 674375 249875
2 2.40278 -4.46493 1.42151 475725 24885.5 -216370 650768 -603475 365763
2 2.49487 -4.53228 2.8911 604827 113833 -747292 230773 -376532 -464755
3 6.26233 -5.90066 1.61227 -259721 218127 1.0714e+07 -75688.2 79258.5 -13514.2
3 -5.31755 -3.81502 1.51417 -81590.4 104137 1.08304e+07 101095 55984.5 20153.4
2 -1.18769 -3.50451 1.27829 47946.3 84817.3 -226923 30594.5 -771944 597836
2 -1.86816 -3.19703 2.49405 -249919 -290617 627745 430892 604835 -421919
2 4.22627 -2.75618 1.40982 95157.4 49060.3 250104 -453582 -213779 -907588
2 4.31549 -2.82021 2.86916 203853 -731687 421240 164506 244656 829440
3 7.71106 -3.63317 1.52224 127479 -207244 1.06768e+07 154281 37979.9 15078.4
3 7.93468 -2.18261 1.52154 -55396.5 -12445.4 1.0738e+07 -240008 48213.2 11502.7
3 -7.26174 -0.120629 1.48431 -48764.5 35796.2 1.075e+07 162517 49602 60846.4
3 -6.5445 -1.43304 1.48453 179133 -167019 1.07901e+07 -98094.6 51051.1 68306.7
2 -2.26625 -1.00846 1.38342 128098 988176 -751984 -8424.41 -393046 -409829
2 -2.3521 -1.84708 2.58283 409474 -1.02656e+06 868717 -150812 252909 -293105
2 4.49794 -1.39672 0.981572 81930.3 717109 -559601 410680 -354894 678289
2 4.69543 -0.614249 2.22498 176983 -1.12837e+06 748110 -194489 193231 -167008
3 -3.14171 -6.57788 2.96695 110212 -171330 1.07859e+07 77602.5 35585.7 31976.8
3 -1.35098 -7.44894 4.40007 81099.6 -68917.8 1.07826e+07 189022 41171.7 75900.6
3 -2.59892 -6.85981 4.40742 -186889 184980 1.07944e+07 -32141 22816.7 48606.3
3 -0.722278 -7.60582 2.98932 -161228 40662.6 1.08002e+07 -204381 66822.1 59471
3 0.684384 -7.99787 3.01909 1195.74 -70198.9 1.07563e+07 229726 50273.5 37292.6
3 1.26178 -7.97692 4.38647 -88675.6 90853.8 1.07613e+07 -215851 94092.1 44183.8
3 2.72464 -7.81261 4.3805 -154830 152512 1.073e+07 177362 88565 34655
3 3.36016 -7.74947 2.98097 40008.4 -144102 1.07147e+07 -226181 83253.5 28074.6
3 4.62867 -7.09709 3.01319 -285794 206830 1.07117e+07 91184.6 71420.2 28896.2
3 5.14359 -6.74699 4.44713 204972 -191793 1.07433e+07 -180252 49588.2 13308.1
3 -4.559 -5.0812 4.36218 152178 -124439 1.08404e+07 66597.5 20903.9 21421.6
3 -4.16738 -5.5581 2.90631 -190394 136418 1.0859e+07 18586.4 32037.2 13340.5
2 -0.0112421 -4.52712 2.9939 -736905 -236712 794711 409575 -364623 266231
2 1.27878 -4.56442 3.65257 -798175 -108815 887222 -565850 -103379 99070.2
3 6.68862 -5.44581 3.00086 210942 -301128 1.07011e+07 22650.8 33748.3 17697.5
3 6.29359 -5.9035 4.44779 -240445 235202 1.07253e+07 -93253.2 31650.1 18043.1
3 -5.65296 -3.34789 2.92687 177223 -155362 1.084e+07 13097.3 43878 13390.6
3 -5.39109 -3.93426 4.35889 -69752.8 96284.4 1.0868e+07 88146 14528.6 4317.99
2 -1.16639 -3.83986 3.60382 739390 430941 -958715 -376256 -258273 -142606
2 -0.918494 -2.99712 4.72388 507975 -137177 75800.1 -911875 -344898 -379668
2 1.46038 -3.69504 4.77015 580756 515781 -722871 428826 600631 -24386.1
2 2.83794 -3.22766 4.78291 206895 -51867.7 379462 -338683 -731662 -511606
2 3.47486 -3.71412 3.62521 -458072 156518 296065 -212851 766797 562736
3 7.48553 -4.21217 3.00046 -204927 122365 1.06756e+07 -202360 -7255.45 30346.8
3 7.77763 -3.66663 4.49463 213780 -203397 1.07354e+07 126516 3649.6 -3149.6
3 8.04912 -2.18219 4.50524 18319.3 -24537.2 1.07613e+07 -242252 -13056.5 -11992
3 -7.27344 -0.269056 4.44349 -41125.3 12068.7 1.08072e+07 160122 11177.1 44907.1
3 -6.55462 -1.52149 4.43768 155557 -174919 1.08035e+07 -84884.7 43925.6 46593.6
3 -6.26159 -2.0091 2.94706 -61237.6 59940.3 1.07949e+07 116683 62627.4 57771.6
2 -2.19309 -1.06904 3.73286 146972 684330 -494274 434539 -288494 648672
2 -1.45132 -1.66078 4.81499 -817515 854790 306556 545799 -38225.1 279502
2 4.64115 -1.49046 3.36065 -162329 783577 -908553 -89635.8 -389013 -353594
2 3.9655 -1.11755 4.50604 -283153 1.04183e+06 -630889 142197 594251 -345538
3 8.02467 -1.5604 3.05647 -28444.5 -65585.6 1.07415e+07 229168 -13627.5 -966.45
3 8.00545 -0.0975939 3.05532 28068.9 -132680 1.07869e+07 -217547 -49847.8 -8539.97
3 -3.2 -6.66281 5.84345 134838 -100778 1.08336e+07 102998 23527.4 24162.7
3 -0.763184 -7.74128 5.89949 -196490 179060 1.07658e+07 -125010 62204.2 25951.4
3 0.659687 -7.91288 5.87451 -50807.5 32313.4 1.07598e+07 225307 79116.1 20310.9
3 3.29904 -7.65937 5.87595 48638.4 -71177.9 1.0794e+07 -237778 65937.2 -6400.59
3 4.67624 -7.17305 5.89285 -241918 228520 1.07632e+07 62775.9 54003.4 -18792
3 -4.22335 -5.64151 5.92316 -132437 158600 1.08564e+07 46060.7 -6232.58 -503.177
3 6.71402 -5.47013 5.8795 241576 -281141 1.07405e+07 -23297.2 52404.7 -12256.7
3 -5.70173 -3.48593 5.82078 149994 -143668 1.08606e+07 -15784.5 9972.24 15085.4
2 0.4203 -3.01703 5.35153 349235 -281343 196933 889131 338845 -207711
3 7.52215 -4.2201 5.90081 -136831 112938 1.079e+07 -235679 22241.4 8592.49
3 -6.18891 -2.08956 5.85205 -88814.8 85220.8 1.08211e+07 100060 29755.2 37853.2
2 -0.406774 -0.824362 5.51062 887545 -1.03368e+06 91316.6 125539 20936.6 -284502
2 0.701488 -1.67877 5.77635 -974903 567589 -154403 -622798 -205338 76341.6
2 1.99566 -1.14394 5.77526 -228132 643931 -369408 -621003 501742 616843
2 3.07642 -1.99419 5.23399 555263 -863459 712978 230562 -275227 -160433
3 8.05336 -1.51283 5.94032 91611.9 -132837 1.08266e+07 211533 10694.1 -21739
3 7.88971 -0.113491 5.94923 148897 -190918 1.08132e+07 -172426 27596.6 -9284.9
3 -3.19619 -6.66189 8.77793 99084.8 -129522 1.0829e+07 133175 22794.1 5045.12
3 -1.44799 -7.73937 7.3278 52084.5 -90831.7 1.07673e+07 185411 47193.4 20938.2
3 -2.72931 -7.03945 7.35402 -209310 181915 1.08473e+07 -23461.3 39711.8 2015.22
3 -0.832812 -7.87419 8.76554 -163559 164961 1.07724e+07 -131184 32167.3 13567
3 0.662408 -7.98376 8.74438 -26462.2 19379.2 1.07466e+07 210187 27912.2 -2900.96
3 1.24376 -7.9695 7.2945 -81035 64410.9 1.07677e+07 -216787 57094.9 17255.9
3 2.6623 -7.71014 7.35572 -158002 136027 1.07732e+07 179211 55031.2 -11410.1
3 3.26155 -7.65481 8.86371 69909 -77385.9 1.07686e+07 -230767 38602.5 -20284.8
3 4.59011 -7.12833 8.90082 -237617 234364 1.07799e+07 70543 71390.2 -39584.1
3 5.07755 -6.78964 7.38497 182930 -228275 1.07767e+07 -172531 59115.4 -24180.2
3 -4.5463 -5.19605 7.38077 146353 -139363 1.08654e+07 47031 8117.45 3251.2
3 -4.15755 -5.62928 8.76041 -165089 139775 1.08359e+07 68378.2 30368.1 -3090.06
3 6.28025 -5.96468 7.38422 -275497 222227 1.07829e+07 -92602.8 54232.5 3817.1
3 6.63516 -5.38071 8.882 246042 -257636 1.07794e+07 -3779.06 36893.5 -14215.7
3 7.27716 -4.12431 8.85386 -147532 135728 1.08186e+07 -214756 45978.8 -19198.1
3 -5.34671 -3.97164 7.32543 -103432 91092.8 1.08692e+07 80705.8 44518.4 15182.2
3 -5.63843 -3.43556 8.75202 151267 -146644 1.08347e+07 -2879.43 58475.9 22292.6
3 -6.32911 -2.16688 8.79952 -68295.5 59861.8 1.08164e+07 105920 65168.7 15635.3
1 1.25603 -2.04687 8.79347 193320 567855 -549112 578774 -754295 41881.2
3 7.6317 -3.57057 7.39994 173945 -218846 1.08162e+07 142488 27877.6 -4801.51
3 7.91843 -2.14698 7.36015 6567.05 -23893.8 1.08625e+07 -245562 17916.9 7327.44
3 -7.18377 -0.331472 7.35429 -67541.5 50071.1 1.08088e+07 157702 37570.1 32922.3
3 -6.47156 -1.56981 7.32905 148003 -151515 1.08329e+07 -96956.6 41847.2 30042.3
1 0.182908 -1.21628 8.59215 -124549 -27966.3 -12727.1 1.01766e+06 -126042 -116480
1 -1.10915 -1.65534 9.1086 654536 -479937 127630 -718329 114883 415557
1 2.54248 -1.52286 9.01851 443984 -277708 271563 -320730 619925 527404
3 7.8559 -0.145899 8.92861 140405 -152581 1.08432e+07 -177397 23372.8 8998.15
3 7.91465 -1.5734 8.87526 91261.2 -85891.3 1.0843e+07 204556 25014.9 7521.26
3 -1.40738 -7.68137 10.1891 57510 -77081.8 1.07532e+07 168426 904.94 -15922.5
3 -2.69132 -7.00957 10.182 -203757 179263 1.08105e+07 -35204.2 127.166 -10864.7
3 1.22509 -8.00052 10.2276 -30537.6 67167.7 1.07598e+07 -197786 -9850.82 -54406.1
3 2.61475 -7.75789 10.2436 -92474.6 130862 1.0719e+07 193075 28052.3 -40487.8
3 5.13538 -6.7579 10.3055 194034 -216247 1.07497e+07 -117674 79892.7 -70830.8
3 -4.60654 -5.23877 10.1749 130706 -129700 1.08055e+07 44076.3 20956.5 -10248
3 6.25115 -5.86503 10.333 -253588 249065 1.07638e+07 -51522.6 45956.7 -1292.16
3 -5.35621 -3.99419 10.2147 -79944.5 102227 1.07973e+07 89982.9 55521 8242.27
1 -1.26618 -2.88962 9.79109 878333 275103 -845654 -255699 -97508 378924
1 -1.98927 -2.90621 11.0454 -615532 -274868 817404 563148 -378204 119964
1 -0.107586 -3.75645 9.95283 -585595 170369 595993 209893 645834 -309490
1 1.11224 -3.31623 9.43243 -568888 -62172.1 838479 -654279 225733 -148079
1 2.37355 -3.5852 10.1533 653321 -93946.7 -673870 376259 139585 593666
1 3.26556 -2.46341 9.89363 -669069 287545 279008 -255519 -709289 -621553
3 7.56024 -3.64236 10.2862 179365 -181148 1.07417e+07 145811 51275.1 -21276.5
3 7.84967 -2.27211 10.3734 -2378.3 11251.5 1.07855e+07 -239586 54700.5 -5018.06
3 -7.03161 -0.29365 10.2141 -46887.2 42697 1.07581e+07 150987 60833.3 34990
3 -6.56987 -1.68045 10.2644 154810 -144115 1.07513e+07 -86718 35174.5 36374.1
1 -2.53168 -0.541057 10.814 213981 793745 -757652 225125 258372 -375045
1 -1.75381 -0.46106 9.65867 -861398 985918 228402 307090 292334 -195616
1 2.62151 -0.117034 9.20049 582738 -732266 500233 333700 341750 -104065
1 4.02916 -1.90665 10.9752 -48957.7 -485588 22934.6 157661 -160678 -973715
1 4.12587 -0.471096 11.1206 -179976 367730 -878093 -83439.1 161220 644971
3 -3.19042 -6.69193 11.6566 94373.4 -169038 1.07874e+07 30702.6 -22716.2 -7613.23
3 -1.37356 -7.7073 13.1712 88023.4 -138231 1.07376e+07 129900 4850.38 83484.3
3 -2.7043 -7.115 13.1075 -220210 131618 1.07682e+07 -97250.1 26221.2 42841.4
3 -0.783716 -7.90005 11.7014 -133928 52778.4 1.07402e+07 -219126 -15283.5 -893.062
3 0.613884 -8.08921 11.7137 53580.9 -121592 1.07586e+07 202346 -8163.12 -49183.5
3 1.18891 -7.99869 13.1771 -955.972 -50064.1 1.07565e+07 -221228 693.41 42915.3
3 2.59468 -7.75307 13.2306 -66899.8 34871.4 1.07366e+07 228135 6321.88 45071.9
3 3.1921 -7.52385 11.7145 159684 -155157 1.06994e+07 -206101 29857.7 -27049.2
3 4.48938 -6.9689 11.7324 -199413 132333 1.07555e+07 196493 70668.7 -18495.9
3 5.18479 -6.93646 13.221 222639 -256413 1.0782e+07 -40487.4 -17155.9 63688.3
3 -4.22323 -5.72589 11.6301 -184639 172604 1.08123e+07 9695.64 21428.4 26681.7
3 -4.66705 -5.25947 13.1356 152281 -127684 1.07955e+07 61684.2 5522.28 32884
1 -0.145841 -4.36774 11.305 -150464 -243436 -108543 191409 -907630 400402
1 1.0196 -4.44553 12.0893 -306564 -327525 226490 -584629 -825342 -263680
3 6.62301 -5.45732 11.7267 248372 -228356 1.07471e+07 96645.2 -2938.52 27156.9
3 6.29593 -6.04302 13.2544 -260697 262740 1.07271e+07 5214.08 -20479.7 55234.1
3 -5.72484 -3.56102 11.6511 175069 -149257 1.07501e+07 13150 22815 16569.8
3 -5.42648 -4.044 13.0923 -73328.3 105547 1.0782e+07 94531.9 -11206.8 32941.4
3 -6.31651 -2.20874 11.6955 -47567.2 54542.4 1.07448e+07 104249 17883.5 16936.3
1 -1.30448 -3.76744 11.9882 124649 69533.7 -620807 -139061 726226 -311324
1 -1.34703 -3.54995 13.3543 633324 -467034 -46808.3 -392842 142057 -804303
1 2.29131 -4.10843 11.4603 261919 -38734.4 -602421 542709 601844 -282936
1 3.99142 -2.48487 12.2667 -93990.5 -611945 447425 -345752 146766 842537
1 3.16452 -3.60496 12.4732 -1.07773e+06 67090.1 707136 -537326 34850.9 279964
3 7.41096 -4.21463 11.733 -244843 194346 1.07445e+07 -101689 30510.9 23068.1
3 7.49797 -3.60126 13.213 52781.5 -78467.1 1.07666e+07 222930 -57520.5 62696.9
3 7.74511 -2.19353 13.2435 -103492 112347 1.07475e+07 -221940 -65881.8 16633.3
3 -7.02896 -0.204317 13.1888 -30489.7 17185.1 1.07429e+07 173067 -14314.8 1099.99
3 -6.67177 -1.68889 13.1719 163750 -185562 1.07409e+07 -71666.7 1970.73 17402.4
1 -2.59246 -1.76248 11.5766 312862 -1.05231e+06 928098 59991.6 -179249 -93936
1 -2.58734 -1.4879 12.9839 229323 666674 -588154 -24520.9 215589 639164
1 -2.47573 -0.069576 13.0724 323580 -165259 59599.7 179539 -122046 -931120
1 4.22624 -0.195562 12.5367 -67517.8 -1.27854e+06 727951 -1751.9 -83806 -222364
1 4.08648 -1.45155 13.2214 68102.9 770697 -869098 199883 348286 -393194
3 7.8503 -1.58869 11.8491 -59787.7 3294.11 1.07607e+07 225301 12335.9 4047.32
3 7.77229 -0.159353 11.8337 -9482.42 -52536.4 1.07897e+07 -241470 43112.7 48395.8
3 -3.33052 -6.82246 14.586 96307.8 -136287 1.08008e+07 120220 15719.4 57318.4
3 -0.8879 -7.86332 14.6567 -157092 180337 1.07749e+07 -130083 -11540.4 59202.1
3 0.551213 -8.09945 14.6831 -20315.1 14764.4 1.07731e+07 196014 -24969.4 48333.9
3 3.18258 -7.64958 14.6247 119605 -68959.6 1.07719e+07 -206132 -6739.13 58138.7
3 4.55184 -7.14684 14.6897 -182519 226829 1.07536e+07 107756 -46583.5 68300
3 -4.26748 -5.75098 14.633 -164798 152723 1.08353e+07 75339.2 -15604.3 33044.4
1 1.11313 -4.19058 13.5044 -537560 516280 256853 329608 746636 207508
3 6.66845 -5.59474 14.7224 249545 -211984 1.07242e+07 49342.4 -40237.7 73593.1
3 -5.76047 -3.5281 14.6258 170064 -149863 1.07798e+07 9594.76 -35447.3 25439.2
3 -6.44115 -2.2635 14.6023 -56268.9 53626.3 1.07622e+07 111515 -16928.6 9574.66
1 -1.92369 -2.32095 13.8809 -379788 740937 -130416 271130 -548109 361999
1 -0.104611 -3.83055 14.1517 -112417 -64024.3 455372 790009 68595 429684
1 0.0561908 -2.75526 15.094 -183780 572527 -280862 -588848 -565061 -410876
1 2.40233 -3.61953 13.7141 873014 -286571 -539170 92823.1 -294926 -676904
1 2.53684 -2.66201 14.7218 772087 -935954 27397.2 389332 -159587 56175.8
3 7.30758 -4.23529 14.6949 -144012 186846 1.07629e+07 -170030 -66275.6 43297.1
1 -1.05722 -1.83223 14.8927 599368 -921431 531001 354972 386248 -117049
1 -1.00152 -0.422151 15.1604 424764 -451167 255039 -307177 618577 496807
1 2.72151 -0.278244 14.9821 648019 -396874 180575 -730778 145886 330350
1 3.43009 -1.49866 14.4647 -896813 1.03211e+06 150979 280193 387804 -215738
3 7.76805 -1.63612 14.7531 64567.9 -41256.1 1.07569e+07 195662 -57537.5 44116.7
3 7.7049 -0.186443 14.7613 125938 -108661 1.07508e+07 -197025 -118784 23899.6
3 -3.16047 -6.59283 17.5536 96230.7 -135846 1.08468e+07 130884 -1547.01 35913
3 -1.41935 -7.67166 16.0883 35108.2 -68588.4 1.0793e+07 200864 -16110.7 28958.2
3 -2.75453 -7.13832 16.0895 -216491 191826 1.08351e+07 3475.31 -9595.04 45239.4
3 1.17168 -8.12216 16.0723 -100200 88574.9 1.07807e+07 -219992 -31472 18186
3 2.59669 -7.8219 16.1533 -168279 152818 1.0787e+07 180823 -31129.6 15301.3
3 5.04906 -6.83571 16.1543 196366 -212771 1.07595e+07 -171004 -4572.7 36606.5
3 -4.66348 -5.25088 16.0799 135693 -145322 1.08531e+07 70027.4 -38555.8 25797.2
3 6.22829 -6.05004 16.1819 -246075 226673 1.07707e+07 -87525.5 -31647.1 30377.7
3 -5.51916 -4.06456 16.0744 -97188.2 81264.9 1.08148e+07 95947.8 -67903.3 16528.9
3 -6.43769 -2.25037 17.5278 -82315.5 66624.3 1.08273e+07 107549 -50515 12654.2
1 1.3059 -2.1432 15.2607 -719239 462316 -8485.63 -742765 236375 114988
3 7.34634 -3.60185 16.191 195654 -196108 1.07662e+07 135637 -29736.9 49163.9
3 7.73853 -2.21685 16.1622 10424.8 -12957.6 1.07626e+07 -245454 -26077.4 43003.1
3 -7.09276 -0.254323 16.0315 -44936.2 21345.2 1.07721e+07 168324 -15728.5 7954.58
3 -6.7035 -1.67052 16.048 143492 -175605 1.08066e+07 -80611 -40751.2 -6249.73
1 1.42294 -0.732551 15.4872 -113696 790.563 244691 1.01268e+06 -146786 -123509
3 -1.47737 -7.70886 19.0131 37666.6 -71634.9 1.08448e+07 190211 -8733.06 22741.4
3 -2.72539 -6.95547 18.9994 -214633 185413 1.08498e+07 -2580.83 -13951.2 22600
3 -0.902656 -7.97816 17.5356 -232264 163599 1.08147e+07 -118579 -21969.8 35105.1
3 0.535756 -8.26161 17.6169 -86641.4 10422.8 1.08199e+07 216912 -28311.4 11823.2
3 1.12664 -8.15995 19.0865 -179096 88140.5 1.07807e+07 -232260 -8650.33 17846
3 2.57315 -7.95286 19.0629 -248592 145545 1.07767e+07 174124 -16769.9 22304
3 3.14467 -7.62455 17.6039 -5696.33 -88193.4 1.07845e+07 -265817 -8701.5 23372.8
3 4.50538 -7.23362 17.5845 -313928 229759 1.07793e+07 53482.9 -35269.7 41865.6
3 5.09103 -6.94246 19.0185 148965 -237480 1.07528e+07 -207030 -36231.4 59748.6
3 -4.23519 -5.60329 17.5371 -174163 133102 1.08784e+07 62402.8 -38733.4 24423.6
3 -4.71212 -5.17793 19.0338 132270 -161832 1.08338e+07 80802.3 -39508.5 35347.6
3 6.58726 -5.55596 17.6342 235305 -285796 1.07619e+07 -13053.3 -12222 32470.3
3 6.23762 -6.06101 19.0102 -290365 197421 1.07554e+07 -134758 -22358.3 29708.6
3 7.16833 -4.26465 17.6703 -141060 114528 1.07829e+07 -216891 -20989.3 41243.3
3 -5.72628 -3.47649 17.5591 137729 -168863 1.08409e+07 -8599.42 -72269.9 19598.3
3 -5.56657 -4.03848 19.0248 -110902 78718.9 1.08342e+07 99037.5 -58982.1 28925.2
2 0.581564 -2.32152 18.8302 628491 -483965 288438 312030 -562919 553754
2 1.86335 -2.96871 19.1628 125227 628397 -343758 -620324 629950 86744.1
2 3.02937 -2.19131 19.2864 -40364.1 14826 222710 -968925 84359.6 -186528
3 7.39864 -3.70538 19.1105 188326 -226765 1.07572e+07 131092 -16597.5 53290.7
3 7.57635 -2.25527 19.1178 13000.5 -42753.7 1.07755e+07 -253200 -8669.38 34595.3
3 -7.11512 -0.289517 18.9561 -52740.9 16415.8 1.07613e+07 167210 -42733.8 29441.3
3 -6.69569 -1.66323 18.9552 144296 -172638 1.08276e+07 -77474.3 -43274.1 26471.5
2 -0.57219 -0.260755 19.3706 -435660 796037 -121921 -232674 483688 483317
2 0.555323 -0.954461 18.7422 584814 -860479 496775 -274241 -334179 -194075
2 1.71175 -0.151534 18.9549 -293367 659883 -274858 642055 556607 -269704