LAMMPS (23 Jun 2022 - Update 1)
OMP_NUM_THREADS environment is not set. Defaulting to 1 thread. (../comm.cpp:98)
  using 1 OpenMP thread(s) per MPI task

# 1------general---------------
units                             metal      #单位为lammps 中的metel 类型
dimension                    3          #模拟的维度 三维
boundary                    p p p      #周期边界条件
atom_style                  atomic   #原子类型自动
atom_modify              map array sort 100 2.0
neighbor                    3.0 bin
neigh_modify            every 1 delay 0 check yes
#2 -----global variable-------定义全局变量，方便统一修改；
variable temperature equal 300
variable tstep equal 0.001
variable pressure equal 0
variable thermalstep equal 100
variable dumpstep equal 1000
variable relaxtime equal 0
variable totaltime equal 200000
variable deformrate equal 5e-3
#3 -------model------------
#box tilt large
read_data     1.lmp
Reading data file ...
  orthogonal box = (-25 -25 -0.606218) to (25 25 110.93785)
  1 by 2 by 4 MPI processor grid
  reading atoms ...
  2928 atoms
  reading velocities ...
  2928 velocities
  read_data CPU = 0.016 seconds
pair_style hybrid airebo 3.0 airebo 3.0 airebo 3.0 lj/cut 10
pair_coeff * * airebo 1 CH.airebo C NULL NULL
Reading airebo potential file CH.airebo with DATE: 2011-10-25
pair_coeff * * airebo 2 CH.airebo NULL C NULL
Reading airebo potential file CH.airebo with DATE: 2011-10-25
pair_coeff * * airebo 3 CH.airebo NULL NULL C
Reading airebo potential file CH.airebo with DATE: 2011-10-25
pair_coeff 1 2 lj/cut 0.00456 3.431
pair_coeff 1 3 lj/cut 0.00456 3.431
pair_coeff 2 3 lj/cut 0.00456 3.431

# 5------minimize -----------
min_style      sd
minimize       1.0e-4 1.0e-6 100 1000
Neighbor list info ...
  update every 1 steps, delay 0 steps, check yes
  max neighbors/atom: 2000, page size: 100000
  master list distance cutoff = 13.2
  ghost atom cutoff = 13.2
  binsize = 6.6, bins = 8 8 17
  6 neighbor lists, perpetual/occasional/extra = 6 0 0
  (1) pair airebo, perpetual, skip from (5)
      attributes: full, newton on, ghost
      pair build: skip/ghost
      stencil: none
      bin: none
  (2) pair airebo, perpetual, skip from (5)
      attributes: full, newton on, ghost
      pair build: skip/ghost
      stencil: none
      bin: none
  (3) pair airebo, perpetual, skip from (5)
      attributes: full, newton on, ghost
      pair build: skip/ghost
      stencil: none
      bin: none
  (4) pair lj/cut, perpetual, skip from (6)
      attributes: half, newton on
      pair build: skip
      stencil: none
      bin: none
  (5) neighbor class addition, perpetual
      attributes: full, newton on, ghost
      pair build: full/bin/ghost
      stencil: full/ghost/bin/3d
      bin: standard
  (6) neighbor class addition, perpetual
      attributes: half, newton on
      pair build: half/bin/atomonly/newton
      stencil: half/bin/3d
      bin: standard
Per MPI rank memory allocation (min/avg/max) = 10.25 | 10.25 | 10.25 Mbytes
   Step          Temp          E_pair         E_mol          TotEng         Press     
         0   0             -20344.756      0             -20344.756      27546.587    
        16   0             -21241.397      0             -21241.397      313.77327    
Loop time of 0.177711 on 8 procs for 16 steps with 2928 atoms

98.5% CPU use with 8 MPI tasks x 1 OpenMP threads

Minimization stats:
  Stopping criterion = energy tolerance
  Energy initial, next-to-last, final = 
     -20344.7559264538  -21240.4212891911  -21241.3968525428
  Force two-norm initial, final = 721.12526 10.912003
  Force max component initial, final = 114.90068 1.6104143
  Final line search alpha, max atom move = 0.031085587 0.050060673
  Iterations, force evaluations = 16 28

MPI task timing breakdown:
Section |  min time  |  avg time  |  max time  |%varavg| %total
---------------------------------------------------------------
Pair    | 0.15125    | 0.16612    | 0.175      |   2.1 | 93.48
Neigh   | 0          | 0          | 0          |   0.0 |  0.00
Comm    | 0.0015281  | 0.0098992  | 0.02526    |   8.6 |  5.57
Output  | 0          | 0          | 0          |   0.0 |  0.00
Modify  | 0          | 0          | 0          |   0.0 |  0.00
Other   |            | 0.001696   |            |       |  0.95

Nlocal:            366 ave         378 max         354 min
Histogram: 4 0 0 0 0 0 0 0 0 4
Nghost:           1062 ave        1074 max        1050 min
Histogram: 4 0 0 0 0 0 0 0 0 4
Neighs:              0 ave           0 max           0 min
Histogram: 8 0 0 0 0 0 0 0 0 0

Total # of neighbors = 0
Ave neighs/atom = 0
Neighbor list builds = 0
Dangerous builds = 0
#6----define computes------
variable nums equal count(all) #计算原子数目
variable toval equal lx*ly*16 #计算系统总体积，单层石墨烯厚度为0.335nm
variable vol equal ${toval} #体系的初始体积
variable vol equal 40000 
variable vatom equal v_vol/v_nums #单个原子体积
compute 1 all stress/atom NULL #计算体系中单原子应力
compute xalls all reduce sum c_1[1]
variable xstress equal (c_xalls)/(v_toval*10000)
compute yalls all reduce sum c_1[2]
variable ystress equal (c_yalls)/(v_toval*10000)
compute zalls all reduce sum c_1[3]
variable zstress equal (c_zalls)/(v_toval*10000)
#7---------relaxation-------------------------
timestep ${tstep}
timestep 0.001
velocity all create ${temperature} 639549 units box dist gaussian
velocity all create 300 639549 units box dist gaussian
dump   1 all atom 100 all-cy.lammpstrj
#fix    1 all npt temp 300 300  0.1 aniso 0 0 10 drag 1  #三个方向独立控压
fix  1 all npt temp ${temperature} ${temperature} 0.1 x ${pressure} ${pressure} 10 y ${pressure} ${pressure} 10
fix  1 all npt temp 300 ${temperature} 0.1 x ${pressure} ${pressure} 10 y ${pressure} ${pressure} 10
fix  1 all npt temp 300 300 0.1 x ${pressure} ${pressure} 10 y ${pressure} ${pressure} 10
fix  1 all npt temp 300 300 0.1 x 0 ${pressure} 10 y ${pressure} ${pressure} 10
fix  1 all npt temp 300 300 0.1 x 0 0 10 y ${pressure} ${pressure} 10
fix  1 all npt temp 300 300 0.1 x 0 0 10 y 0 ${pressure} 10
fix  1 all npt temp 300 300 0.1 x 0 0 10 y 0 0 10
compute  2 all pe/atom
compute  pe all reduce sum c_2
variable PE equal "c_pe"
fix    pe all print 100 "${PE} " file PE.txt screen no
thermo  ${thermalstep}
thermo  100
#thermo_style  custom step pe ke etotal lx ly lz
run   ${relaxtime}
run   0
Per MPI rank memory allocation (min/avg/max) = 10.88 | 10.88 | 10.88 Mbytes
   Step          Temp          E_pair         E_mol          TotEng         Press          Volume    
        16   300           -21241.397      0             -21127.894      748.5249       278860.18    
Loop time of 8.05388e-06 on 8 procs for 0 steps with 2928 atoms

69.8% CPU use with 8 MPI tasks x 1 OpenMP threads

MPI task timing breakdown:
Section |  min time  |  avg time  |  max time  |%varavg| %total
---------------------------------------------------------------
Pair    | 0          | 0          | 0          |   0.0 |  0.00
Neigh   | 0          | 0          | 0          |   0.0 |  0.00
Comm    | 0          | 0          | 0          |   0.0 |  0.00
Output  | 0          | 0          | 0          |   0.0 |  0.00
Modify  | 0          | 0          | 0          |   0.0 |  0.00
Other   |            | 8.054e-06  |            |       |100.00

Nlocal:            366 ave         369 max         363 min
Histogram: 4 0 0 0 0 0 0 0 0 4
Nghost:           1062 ave        1065 max        1059 min
Histogram: 4 0 0 0 0 0 0 0 0 4
Neighs:              0 ave           0 max           0 min
Histogram: 8 0 0 0 0 0 0 0 0 0

Total # of neighbors = 0
Ave neighs/atom = 0
Neighbor list builds = 0
Dangerous builds = 0
#8 -------tension-----------------------------
unfix  1
undump  1
unfix  pe
reset_timestep 0
fix avestress all ave/atom 1 ${dumpstep} ${dumpstep} c_1[1] c_1[2] c_1[3] c_1[4] c_1[5] c_1[6]
fix avestress all ave/atom 1 1000 ${dumpstep} c_1[1] c_1[2] c_1[3] c_1[4] c_1[5] c_1[6]
fix avestress all ave/atom 1 1000 1000 c_1[1] c_1[2] c_1[3] c_1[4] c_1[5] c_1[6]

#-----calculation of strain and Cumulative compression--------
variable                tmp equal "lz"
variable                L0 equal ${tmp}
variable                L0 equal 111.544072
variable                strain equal "(lz - v_L0)/v_L0"
variable                Cumulativels equal "(lz - v_L0)/10"
fix Step all print 100 "${strain} ${Cumulativels} ${zstress}" file grapoten.txt screen no

dump 2 all custom ${dumpstep} tension.xyz type x y z f_avestress[1] f_avestress[2] f_avestress[3] f_avestress[4] f_avestress[5] f_avestress[6]
dump 2 all custom 1000 tension.xyz type x y z f_avestress[1] f_avestress[2] f_avestress[3] f_avestress[4] f_avestress[5] f_avestress[6]

fix  1 all npt temp ${temperature} ${temperature} 0.1 y ${pressure} ${pressure} 10 x ${pressure} ${pressure} 10
fix  1 all npt temp 300 ${temperature} 0.1 y ${pressure} ${pressure} 10 x ${pressure} ${pressure} 10
fix  1 all npt temp 300 300 0.1 y ${pressure} ${pressure} 10 x ${pressure} ${pressure} 10
fix  1 all npt temp 300 300 0.1 y 0 ${pressure} 10 x ${pressure} ${pressure} 10
fix  1 all npt temp 300 300 0.1 y 0 0 10 x ${pressure} ${pressure} 10
fix  1 all npt temp 300 300 0.1 y 0 0 10 x 0 ${pressure} 10
fix  1 all npt temp 300 300 0.1 y 0 0 10 x 0 0 10

thermo_style custom step pe ke etotal lx ly lz
fix   2 all deform 1 z erate ${deformrate} remap x units box
fix   2 all deform 1 z erate 0.005 remap x units box
fix   3 all ave/time 2 500 1000 v_xstress v_ystress v_zstress file pressure.out
run   ${totaltime}
run   200000
Per MPI rank memory allocation (min/avg/max) = 13.65 | 13.65 | 13.65 Mbytes
   Step         PotEng         KinEng         TotEng           Lx             Ly             Lz      
         0  -21241.397      113.50333     -21127.894      50             50             111.54407    
       100  -21220.9        103.09772     -21117.802      50.006347      49.986762      111.59984    
       200  -21228.4        113.04561     -21115.354      50.005008      49.95971       111.65562    
       300  -21216.752      101.62097     -21115.131      50.028356      49.947312      111.71139    
       400  -21222.396      115.41425     -21106.982      50.033684      49.922051      111.76716    
       500  -21217.455      117.39277     -21100.063      50.05582       49.910419      111.82293    
       600  -21215.329      120.12176     -21095.207      50.060871      49.900693      111.8787     
       700  -21210.894      120.27013     -21090.624      50.061298      49.909991      111.93448    
       800  -21199.649      111.91173     -21087.738      50.058774      49.931489      111.99025    
       900  -21194.246      110.8894      -21083.356      50.031768      49.943702      112.04602    
      1000  -21205.01       124.80762     -21080.202      50.018492      49.962325      112.10179    
      1100  -21212.338      121.42521     -21090.913      49.993059      49.971252      112.15756    
      1200  -21205.215      108.51169     -21096.703      49.981542      49.986031      112.21334    
      1300  -21199.493      106.51004     -21092.983      49.964008      49.992825      112.26911    
      1400  -21194.247      110.38554     -21083.861      49.953572      50.00522       112.32488    
      1500  -21193.797      116.74085     -21077.056      49.945791      50.018462      112.38065    
      1600  -21188.615      111.63818     -21076.977      49.936128      50.022316      112.43642    
      1700  -21191.208      114.7565      -21076.451      49.934019      50.029252      112.4922     
      1800  -21195.443      116.61946     -21078.824      49.931401      50.027021      112.54797    
      1900  -21195.91       112.23187     -21083.678      49.933385      50.02393       112.60374    
      2000  -21191.954      108.76328     -21083.191      49.934529      50.020861      112.65951    
      2100  -21191.205      114.5889      -21076.616      49.933794      50.017107      112.71528    
      2200  -21187.548      114.01153     -21073.537      49.93415       50.018113      112.77106    
      2300  -21190.887      116.92348     -21073.964      49.930192      50.015979      112.82683    
      2400  -21188.22       111.08766     -21077.132      49.9311        50.017979      112.8826     
      2500  -21188.53       111.14533     -21077.384      49.928731      50.01332       112.93837    
      2600  -21187.25       110.38991     -21076.86       49.932384      50.011354      112.99414    
      2700  -21189.322      115.50455     -21073.818      49.93534       50.005668      113.04992    
      2800  -21185.524      112.53366     -21072.99       49.938096      49.998277      113.10569    
      2900  -21185.728      111.97136     -21073.756      49.943038      49.995908      113.16146    
      3000  -21183.167      111.96041     -21071.206      49.941975      49.989143      113.21723    
      3100  -21179.457      112.95602     -21066.501      49.944862      49.988652      113.27301    
      3200  -21178.791      113.1721      -21065.619      49.943547      49.98555       113.32878    
      3300  -21180.874      113.97556     -21066.898      49.942109      49.984915      113.38455    
      3400  -21181.583      113.0156      -21068.567      49.939407      49.983781      113.44032    
      3500  -21182.691      111.8068      -21070.884      49.936807      49.982332      113.49609    
      3600  -21179.343      111.8613      -21067.482      49.937156      49.982595      113.55187    
      3700  -21173.619      111.73433     -21061.885      49.935546      49.980372      113.60764    
      3800  -21175.917      117.31233     -21058.605      49.933342      49.979571      113.66341    
      3900  -21174.689      115.38903     -21059.3        49.932269      49.98058       113.71918    
      4000  -21173.562      111.32611     -21062.236      49.926241      49.976952      113.77495    
      4100  -21179.578      116.64604     -21062.932      49.926695      49.980215      113.83073    
      4200  -21174.669      110.12002     -21064.549      49.922014      49.979626      113.8865     
      4300  -21172.716      111.20205     -21061.513      49.918424      49.980618      113.94227    
      4400  -21170.567      113.54958     -21057.017      49.916221      49.982879      113.99804    
      4500  -21168.66       113.51163     -21055.148      49.909347      49.97935       114.05381    
      4600  -21165.035      112.57212     -21052.463      49.908393      49.980101      114.10959    
      4700  -21164.063      116.19633     -21047.867      49.905787      49.976741      114.16536    
      4800  -21165.402      117.39128     -21048.011      49.90688       49.975381      114.22113    
      4900  -21162.323      112.19165     -21050.131      49.907843      49.972495      114.2769     
      5000  -21161.877      112.98591     -21048.891      49.90651       49.96778       114.33267    
      5100  -21160.218      113.31277     -21046.905      49.909029      49.966289      114.38845    
      5200  -21157.146      114.32885     -21042.817      49.905546      49.959178      114.44422    
      5300  -21158.019      118.01741     -21040.002      49.908437      49.957959      114.49999    
      5400  -21158.429      115.4179      -21043.011      49.907376      49.954156      114.55576    
      5500  -21156.418      112.03429     -21044.384      49.905238      49.951435      114.61153    
      5600  -21156.479      114.04367     -21042.436      49.903978      49.951856      114.66731    
      5700  -21154.402      113.60687     -21040.795      49.896691      49.948125      114.72308    
      5800  -21155.143      113.61783     -21041.526      49.895499      49.948659      114.77885    
      5900  -21150.227      109.57447     -21040.652      49.89082       49.946951      114.83462    
      6000  -21149.155      114.2624      -21034.892      49.88717       49.946566      114.89039    
      6100  -21145.39       114.05571     -21031.334      49.883895      49.946968      114.94617    
      6200  -21144.316      112.31262     -21032.003      49.878399      49.946549      115.00194    
      6300  -21144.094      112.22872     -21031.866      49.875932      49.947889      115.05771    
      6400  -21140.343      111.61988     -21028.723      49.870997      49.945898      115.11348    
      6500  -21135.51       113.95484     -21021.556      49.86872       49.945789      115.16925    
      6600  -21135.157      115.32995     -21019.827      49.866507      49.944397      115.22503    
      6700  -21135.582      114.09835     -21021.483      49.863006      49.940952      115.2808     
      6800  -21136.047      114.63987     -21021.407      49.86107       49.940022      115.33657    
      6900  -21132.808      114.25096     -21018.557      49.855918      49.935623      115.39234    
      7000  -21128.954      114.91086     -21014.043      49.852388      49.932856      115.44811    
      7100  -21126.785      115.68119     -21011.104      49.849757      49.929649      115.50389    
      7200  -21129.451      116.12454     -21013.326      49.846989      49.926664      115.55966    
      7300  -21124.859      111.77863     -21013.081      49.846375      49.925978      115.61543    
      7400  -21124.284      114.89495     -21009.389      49.841708      49.923122      115.6712     
      7500  -21121.775      114.04328     -21007.732      49.840839      49.923887      115.72697    
      7600  -21121.417      112.11176     -21009.305      49.835307      49.921302      115.78275    
      7700  -21120.474      110.79954     -21009.675      49.832709      49.920315      115.83852    
      7800  -21118.588      113.85059     -21004.738      49.829738      49.917911      115.89429    
      7900  -21116.533      115.69188     -21000.841      49.826033      49.913828      115.95006    
      8000  -21111.743      112.68796     -20999.055      49.825246      49.91045       116.00583    
      8100  -21110.565      115.17705     -20995.388      49.820382      49.904365      116.06161    
      8200  -21107.189      116.28757     -20990.902      49.819077      49.902084      116.11738    
      8300  -21102.752      114.94696     -20987.805      49.812895      49.896922      116.17315    
      8400  -21101.661      112.597       -20989.064      49.811465      49.895366      116.22892    
      8500  -21101.826      112.23229     -20989.594      49.807826      49.892997      116.2847     
      8600  -21096.127      110.46948     -20985.658      49.802124      49.890266      116.34047    
      8700  -21094.15       113.57102     -20980.579      49.799615      49.890662      116.39624    
      8800  -21094.594      115.37936     -20979.214      49.790868      49.886591      116.45201    
      8900  -21092.314      113.13966     -20979.175      49.788573      49.887337      116.50778    
      9000  -21090.648      113.95088     -20976.698      49.782205      49.884095      116.56356    
      9100  -21088.012      115.02622     -20972.986      49.778364      49.882484      116.61933    
      9200  -21083.321      115.11827     -20968.202      49.77439       49.881123      116.6751     
      9300  -21080.568      118.50784     -20962.06       49.768471      49.877353      116.73087    
      9400  -21077.677      115.01842     -20962.658      49.767708      49.876861      116.78664    
      9500  -21079.428      114.88449     -20964.543      49.760997      49.870371      116.84242    
      9600  -21075.076      111.17671     -20963.899      49.759161      49.866243      116.89819    
      9700  -21073.237      111.74605     -20961.491      49.7566        49.860586      116.95396    
      9800  -21071.746      115.69222     -20956.053      49.752785      49.853278      117.00973    
      9900  -21067.166      114.99114     -20952.174      49.752683      49.850005      117.0655     
     10000  -21064.561      112.52426     -20952.037      49.746069      49.842775      117.12128    
     10100  -21062.846      109.51788     -20953.329      49.743622      49.840034      117.17705    
     10200  -21061.682      112.0185      -20949.664      49.738301      49.836091      117.23282    
     10300  -21057.548      111.95047     -20945.597      49.732421      49.832901      117.28859    
     10400  -21056.155      113.78095     -20942.374      49.728495      49.83225       117.34436    
     10500  -21055.358      113.10615     -20942.252      49.719396      49.828751      117.40014    
     10600  -21056.653      113.69668     -20942.956      49.715784      49.829246      117.45591    
     10700  -21053.732      114.80086     -20938.931      49.707383      49.82525       117.51168    
     10800  -21045.778      112.18819     -20933.59       49.701422      49.822615      117.56745    
     10900  -21043.383      113.89875     -20929.485      49.695842      49.819417      117.62322    
     11000  -21040.049      113.56896     -20926.48       49.686759      49.814115      117.679      
     11100  -21035.733      111.19815     -20924.535      49.681983      49.813044      117.73477    
     11200  -21035.329      111.54722     -20923.781      49.673617      49.808075      117.79054    
     11300  -21037.171      113.62154     -20923.549      49.668676      49.804904      117.84631    
     11400  -21028.256      108.83638     -20919.42       49.663732      49.801517      117.90208    
     11500  -21028.424      116.05538     -20912.368      49.655958      49.795379      117.95786    
     11600  -21020.599      112.15501     -20908.444      49.652498      49.791935      118.01363    
     11700  -21020.011      114.63512     -20905.376      49.64498       49.784268      118.0694     
     11800  -21017.082      111.57586     -20905.506      49.640902      49.779167      118.12517    
     11900  -21018.491      112.67794     -20905.813      49.635287      49.773331      118.18094    
     12000  -21010.834      109.41578     -20901.419      49.628114      49.766406      118.23672    
     12100  -21011.142      115.22987     -20895.912      49.623738      49.762405      118.29249    
     12200  -21004.876      112.27511     -20892.601      49.614954      49.756408      118.34826    
     12300  -21005.733      115.41767     -20890.316      49.607139      49.751542      118.40403    
     12400  -21001.342      109.70709     -20891.635      49.599937      49.74693       118.4598     
     12500  -20999.525      110.0533      -20889.472      49.590997      49.740751      118.51558    
     12600  -20997.534      113.60842     -20883.925      49.584976      49.736572      118.57135    
     12700  -20992.465      113.24522     -20879.22       49.575941      49.729977      118.62712    
     12800  -20988.128      113.69839     -20874.429      49.567819      49.725412      118.68289    
     12900  -20983.808      114.49464     -20869.314      49.558191      49.720178      118.73866    
     13000  -20983.482      116.45649     -20867.025      49.547698      49.714716      118.79444    
     13100  -20978.314      109.76238     -20868.552      49.538435      49.710758      118.85021    
     13200  -20980.37       113.35471     -20867.015      49.527565      49.705511      118.90598    
     13300  -20976.75       114.08708     -20862.663      49.518708      49.701842      118.96175    
     13400  -20970.791      112.6878      -20858.103      49.507841      49.697006      119.01752    
     13500  -20967.479      113.81947     -20853.659      49.496573      49.69184       119.0733     
     13600  -20964.034      114.0483      -20849.986      49.485688      49.686145      119.12907    
     13700  -20961.929      114.5236      -20847.405      49.473905      49.678628      119.18484    
     13800  -20957.426      112.24567     -20845.181      49.464201      49.672664      119.24061    
     13900  -20954.417      112.73248     -20841.685      49.452378      49.665458      119.29639    
     14000  -20949.315      113.85995     -20835.455      49.440921      49.659091      119.35216    
     14100  -20944.883      114.86187     -20830.021      49.42907       49.652488      119.40793    
     14200  -20939.435      112.31169     -20827.123      49.41637       49.644681      119.4637     
     14300  -20940.616      113.42862     -20827.188      49.405326      49.638812      119.51947    
     14400  -20938.8        112.75811     -20826.042      49.391104      49.630411      119.57525    
     14500  -20932.5        110.395       -20822.105      49.379189      49.623722      119.63102    
     14600  -20930.829      113.11535     -20817.713      49.366794      49.617202      119.68679    
     14700  -20928.157      114.89305     -20813.263      49.352383      49.609163      119.74256    
     14800  -20923.911      114.07596     -20809.835      49.339066      49.603203      119.79833    
     14900  -20920.346      113.15833     -20807.187      49.323458      49.594374      119.85411    
     15000  -20916.59       111.34492     -20805.245      49.309067      49.585622      119.90988    
     15100  -20916.699      114.21665     -20802.482      49.295108      49.576175      119.96565    
     15200  -20910.719      112.96857     -20797.751      49.279537      49.565204      120.02142    
     15300  -20903.822      112.66066     -20791.161      49.26609       49.556357      120.07719    
     15400  -20902.263      116.71002     -20785.553      49.250279      49.545571      120.13297    
     15500  -20897.604      113.70911     -20783.895      49.234637      49.536909      120.18874    
     15600  -20896.342      112.36352     -20783.978      49.218077      49.528185      120.24451    
     15700  -20890.314      110.18938     -20780.125      49.201114      49.518939      120.30028    
     15800  -20888.451      114.22181     -20774.23       49.185375      49.509721      120.35605    
     15900  -20884.016      115.22915     -20768.787      49.167905      49.496794      120.41183    
     16000  -20880.284      112.57202     -20767.712      49.152662      49.4856        120.4676     
     16100  -20878.695      111.39269     -20767.302      49.134583      49.472653      120.52337    
     16200  -20875.79       112.90662     -20762.884      49.116602      49.46146       120.57914    
     16300  -20869.292      112.09728     -20757.195      49.098287      49.450502      120.63491    
     16400  -20864.766      113.85116     -20750.915      49.077948      49.438263      120.69069    
     16500  -20860.75       115.13181     -20745.619      49.05913       49.42832       120.74646    
     16600  -20858.39       115.09572     -20743.294      49.037337      49.415739      120.80223    
     16700  -20853.589      112.70725     -20740.882      49.017011      49.404064      120.858      
     16800  -20848.679      111.25524     -20737.423      48.996402      49.391639      120.91377    
     16900  -20846.346      112.40786     -20733.938      48.975369      49.377862      120.96955    
     17000  -20843.041      113.91621     -20729.125      48.955573      49.365284      121.02532    
     17100  -20838.753      115.75706     -20722.996      48.934977      49.351368      121.08109    
     17200  -20834.291      114.2936      -20719.997      48.914159      49.33651       121.13686    
     17300  -20833.57       112.86014     -20720.71       48.893219      49.32184       121.19263    
     17400  -20829.42       111.96991     -20717.451      48.871981      49.307692      121.24841    
     17500  -20824.706      113.54119     -20711.165      48.850038      49.294076      121.30418    
     17600  -20819.803      114.73029     -20705.073      48.826863      49.27939       121.35995    
     17700  -20816.077      114.87009     -20701.207      48.803507      49.264206      121.41572    
     17800  -20811.46       112.92469     -20698.535      48.78127       49.249478      121.47149    
     17900  -20808.492      113.56065     -20694.931      48.757827      49.23299       121.52727    
     18000  -20802.46       112.26724     -20690.193      48.735688      49.21667       121.58304    
     18100  -20799.111      114.48618     -20684.625      48.712479      49.199774      121.63881    
     18200  -20794.38       114.64819     -20679.732      48.688889      49.182786      121.69458    
     18300  -20790.135      113.1982      -20676.937      48.665539      49.16699       121.75035    
     18400  -20788.981      112.49511     -20676.486      48.641259      49.150641      121.80613    
     18500  -20784.3        111.32443     -20672.976      48.617159      49.134587      121.8619     
     18600  -20780.677      115.56352     -20665.114      48.592861      49.119118      121.91767    
     18700  -20773.86       113.66028     -20660.2        48.56768       49.103016      121.97344    
     18800  -20772.552      115.13242     -20657.42       48.542504      49.086895      122.02921    
     18900  -20767.847      112.40599     -20655.441      48.518246      49.071523      122.08499    
     19000  -20763.357      111.41614     -20651.94       48.49319       49.054362      122.14076    
     19100  -20757.131      113.483       -20643.648      48.468981      49.037473      122.19653    
     19200  -20753.005      115.62436     -20637.38       48.444784      49.020202      122.2523     
     19300  -20750.855      115.58326     -20635.272      48.420021      49.001693      122.30807    
     19400  -20745.703      113.19595     -20632.507      48.396168      48.984711      122.36385    
     19500  -20742.162      113.57358     -20628.588      48.372006      48.967257      122.41962    
     19600  -20736.293      112.50767     -20623.785      48.348425      48.950035      122.47539    
     19700  -20732.055      113.52186     -20618.533      48.325306      48.933405      122.53116    
     19800  -20728.304      114.50686     -20613.797      48.301146      48.916227      122.58694    
     19900  -20722.876      117.34493     -20605.531      48.277505      48.90097       122.64271    
     20000  -20715.901      114.36309     -20601.538      48.253112      48.885567      122.69848    
     20100  -20714.158      113.06745     -20601.091      48.228751      48.869785      122.75425    
     20200  -20711.749      113.07661     -20598.673      48.205808      48.854873      122.81002    
     20300  -20708.596      113.23033     -20595.366      48.1828        48.838775      122.8658     
     20400  -20703.16       111.78861     -20591.372      48.160331      48.822065      122.92157    
     20500  -20697.854      113.50041     -20584.354      48.138173      48.805702      122.97734    
     20600  -20692.805      115.22474     -20577.58       48.116237      48.790023      123.03311    
     20700  -20688.416      113.91627     -20574.5        48.094525      48.775374      123.08888    
     20800  -20686.425      112.97105     -20573.454      48.071828      48.76042       123.14466    
     20900  -20680.894      110.80714     -20570.087      48.05072       48.746161      123.20043    
     21000  -20674.192      113.79894     -20560.393      48.028719      48.731142      123.2562     
     21100  -20673.068      118.23295     -20554.835      48.007449      48.71745       123.31197    
     21200  -20668.369      115.45633     -20552.913      47.986213      48.703905      123.36774    
     21300  -20662.344      111.26077     -20551.084      47.965178      48.68971       123.42352    
     21400  -20660.83       114.13858     -20546.692      47.94645       48.676055      123.47929    
     21500  -20650.892      111.79897     -20539.094      47.927539      48.661173      123.53506    
     21600  -20646.807      115.91636     -20530.891      47.909423      48.647768      123.59083    
     21700  -20642.454      114.74879     -20527.706      47.891334      48.634789      123.6466     
     21800  -20638.093      112.71736     -20525.376      47.87292       48.621838      123.70238    
     21900  -20635.798      113.99317     -20521.805      47.855115      48.609568      123.75815    
     22000  -20631.333      114.27155     -20517.062      47.837616      48.597268      123.81392    
     22100  -20623.63       112.45631     -20511.174      47.820482      48.585799      123.86969    
     22200  -20618.696      113.77111     -20504.925      47.804602      48.574211      123.92546    
     22300  -20613.904      113.86067     -20500.043      47.788672      48.562351      123.98124    
     22400  -20613.18       114.46517     -20498.715      47.772226      48.550187      124.03701    
     22500  -20606.609      110.20087     -20496.409      47.756252      48.538445      124.09278    
     22600  -20603.156      112.29972     -20490.857      47.740492      48.527027      124.14855    
     22700  -20598.154      113.89933     -20484.254      47.724829      48.515706      124.20432    
     22800  -20593.684      114.7404      -20478.943      47.710128      48.505281      124.2601     
     22900  -20586.92       112.63521     -20474.285      47.695622      48.494779      124.31587    
     23000  -20581.981      113.02987     -20468.951      47.681591      48.484467      124.37164    
     23100  -20576.9        113.82185     -20463.078      47.668338      48.474602      124.42741    
     23200  -20571.428      113.5533      -20457.874      47.654451      48.464565      124.48318    
     23300  -20569.077      114.69858     -20454.379      47.641727      48.455852      124.53896    
     23400  -20564.886      112.28503     -20452.601      47.629245      48.446897      124.59473    
     23500  -20561.406      112.87031     -20448.536      47.616407      48.437606      124.6505     
     23600  -20554.397      114.29202     -20440.105      47.605193      48.429546      124.70627    
     23700  -20548.356      115.7002      -20432.656      47.59194       48.419068      124.76204    
     23800  -20543.979      114.96646     -20429.012      47.580934      48.410616      124.81782    
     23900  -20541.726      114.93124     -20426.795      47.569639      48.401961      124.87359    
     24000  -20534.222      110.88845     -20423.334      47.55804       48.39316       124.92936    
     24100  -20528.683      112.44495     -20416.238      47.547625      48.385947      124.98513    
     24200  -20521.695      115.02967     -20406.666      47.535774      48.377795      125.0409     
     24300  -20520          116.69038     -20403.31       47.524375      48.370611      125.09668    
     24400  -20514.857      113.26805     -20401.588      47.513373      48.362909      125.15245    
     24500  -20510.203      112.13891     -20398.064      47.503011      48.354805      125.20822    
     24600  -20504.451      112.67795     -20391.773      47.492791      48.347171      125.26399    
     24700  -20498.171      115.63946     -20382.531      47.482943      48.339451      125.31976    
     24800  -20495.531      117.91618     -20377.615      47.473868      48.332357      125.37554    
     24900  -20488.238      113.66699     -20374.571      47.465342      48.325415      125.43131    
     25000  -20483.833      112.46493     -20371.368      47.456051      48.317802      125.48708    
     25100  -20480.926      113.82526     -20367.101      47.447093      48.310958      125.54285    
     25200  -20476.075      113.93291     -20362.142      47.437531      48.304889      125.59863    
     25300  -20468.674      113.76009     -20354.914      47.427943      48.299018      125.6544     
     25400  -20465.464      117.80997     -20347.654      47.418695      48.293326      125.71017    
     25500  -20457.617      113.69075     -20343.927      47.409467      48.287526      125.76594    
     25600  -20455.209      112.59419     -20342.615      47.400981      48.281183      125.82171    
     25700  -20449.043      111.8164      -20337.227      47.392823      48.27369       125.87749    
     25800  -20443.282      113.34366     -20329.938      47.386114      48.266985      125.93326    
     25900  -20438.144      114.63039     -20323.514      47.378249      48.259399      125.98903    
     26000  -20430.216      112.14551     -20318.071      47.370515      48.252634      126.0448     
     26100  -20425.351      111.81366     -20313.538      47.36274       48.247241      126.10057    
     26200  -20423.648      110.91405     -20312.734      47.353794      48.241805      126.15635    
     26300  -20419.421      110.94655     -20308.474      47.345518      48.237042      126.21212    
     26400  -20413.438      113.49488     -20299.943      47.337592      48.231582      126.26789    
     26500  -20407.138      114.73773     -20292.4        47.330311      48.225585      126.32366    
     26600  -20403.211      116.37721     -20286.834      47.32307       48.218612      126.37943    
     26700  -20396.405      112.95069     -20283.454      47.316491      48.212396      126.43521    
     26800  -20393.925      112.22683     -20281.698      47.309165      48.206462      126.49098    
     26900  -20385.439      109.38075     -20276.058      47.301234      48.201057      126.54675    
     27000  -20377.246      112.40676     -20264.839      47.292908      48.196133      126.60252    
     27100  -20373.17       114.15707     -20259.013      47.284386      48.191154      126.65829    
     27200  -20370.591      114.67355     -20255.917      47.276734      48.187318      126.71407    
     27300  -20363.889      110.9844      -20252.905      47.267884      48.18206       126.76984    
     27400  -20357.711      110.26445     -20247.447      47.26098       48.177585      126.82561    
     27500  -20354.083      115.79184     -20238.291      47.254025      48.172607      126.88138    
     27600  -20347.899      116.55296     -20231.346      47.246499      48.166994      126.93715    
     27700  -20342.093      114.37269     -20227.721      47.240117      48.162174      126.99293    
     27800  -20338.009      113.75281     -20224.256      47.233052      48.156807      127.0487     
     27900  -20332.195      112.75535     -20219.439      47.225991      48.151873      127.10447    
     28000  -20328.615      115.23798     -20213.377      47.218509      48.147323      127.16024    
     28100  -20319.987      112.81749     -20207.17       47.210945      48.142615      127.21601    
     28200  -20314.633      114.57991     -20200.053      47.203606      48.137796      127.27179    
     28300  -20304.851      113.72751     -20191.123      47.196135      48.132514      127.32756    
     28400  -20302.143      115.11199     -20187.031      47.188805      48.127289      127.38333    
     28500  -20298.934      113.05908     -20185.875      47.181912      48.122195      127.4391     
     28600  -20295.274      112.92888     -20182.345      47.174537      48.11674       127.49487    
     28700  -20291.932      114.45636     -20177.476      47.167549      48.111677      127.55065    
     28800  -20285.847      115.60087     -20170.246      47.160244      48.106713      127.60642    
     28900  -20275.844      114.82129     -20161.022      47.153264      48.102201      127.66219    
     29000  -20270.392      114.22275     -20156.17       47.146137      48.097334      127.71796    
     29100  -20263.769      110.70797     -20153.061      47.138876      48.092436      127.77373    
     29200  -20259.084      111.23053     -20147.854      47.131821      48.088383      127.82951    
     29300  -20256.934      114.39941     -20142.535      47.125108      48.083693      127.88528    
     29400  -20251.462      113.6045      -20137.858      47.118318      48.078615      127.94105    
     29500  -20249.157      112.88556     -20136.272      47.111766      48.074022      127.99682    
     29600  -20241.008      109.59282     -20131.415      47.104308      48.0683        128.05259    
     29700  -20234.209      112.3583      -20121.85       47.097539      48.062842      128.10837    
     29800  -20228.542      113.35653     -20115.185      47.090735      48.05719       128.16414    
     29900  -20220.968      112.50122     -20108.466      47.083282      48.051196      128.21991    
     30000  -20215.917      114.23282     -20101.685      47.077327      48.046545      128.27568    
     30100  -20208.943      113.70601     -20095.237      47.070103      48.040654      128.33145    
     30200  -20202.538      112.2577      -20090.28       47.063514      48.035461      128.38723    
     30300  -20200.376      112.89496     -20087.481      47.05723       48.030389      128.443      
     30400  -20194.13       110.72275     -20083.407      47.050423      48.024035      128.49877    
     30500  -20190.372      114.1055      -20076.266      47.044794      48.018763      128.55454    
     30600  -20180.158      113.85328     -20066.305      47.037919      48.012925      128.61032    
     30700  -20172.879      112.33315     -20060.546      47.031042      48.007896      128.66609    
     30800  -20171.012      113.53734     -20057.474      47.024238      48.002992      128.72186    
     30900  -20166.825      112.7665      -20054.058      47.016474      47.9979        128.77763    
     31000  -20160.742      112.41087     -20048.331      47.008394      47.992823      128.8334     
     31100  -20153.247      111.7074      -20041.539      47.00051       47.98768       128.88918    
     31200  -20148.637      114.25137     -20034.386      46.993599      47.982316      128.94495    
     31300  -20141.459      114.47501     -20026.984      46.987008      47.976428      129.00072    
     31400  -20133.367      115.24394     -20018.123      46.980532      47.970365      129.05649    
     31500  -20128.128      115.20825     -20012.919      46.973694      47.964128      129.11226    
     31600  -20124.353      113.07585     -20011.277      46.966932      47.958815      129.16804    
     31700  -20120.88       113.80771     -20007.072      46.958508      47.953857      129.22381    
     31800  -20114.351      113.06502     -20001.286      46.95062       47.949845      129.27958    
     31900  -20109.889      116.26776     -19993.621      46.942866      47.945858      129.33535    
     32000  -20099.76       115.72649     -19984.034      46.935309      47.941075      129.39112    
     32100  -20093.324      113.89221     -19979.432      46.929539      47.935783      129.4469     
     32200  -20089.847      112.53096     -19977.316      46.92316       47.928058      129.50267    
     32300  -20083.463      111.33358     -19972.129      46.917121      47.920402      129.55844    
     32400  -20075.872      110.14745     -19965.725      46.910847      47.913892      129.61421    
     32500  -20071.959      114.4995      -19957.459      46.902367      47.906836      129.66998    
     32600  -20063.918      114.35637     -19949.562      46.894963      47.901814      129.72576    
     32700  -20058.914      114.63108     -19944.283      46.886995      47.896088      129.78153    
     32800  -20056.386      112.88785     -19943.498      46.879377      47.89007       129.8373     
     32900  -20049.021      110.35107     -19938.67       46.872294      47.88381       129.89307    
     33000  -20043.352      112.48255     -19930.869      46.864688      47.876567      129.94884    
     33100  -20033.708      111.97322     -19921.734      46.858054      47.871035      130.00462    
     33200  -20031.33       115.95122     -19915.378      46.850475      47.864646      130.06039    
     33300  -20026.59       115.86314     -19910.727      46.842918      47.858518      130.11616    
     33400  -20018.879      112.76929     -19906.109      46.835626      47.852662      130.17193    
     33500  -20012.462      111.88474     -19900.577      46.827822      47.846193      130.2277     
     33600  -20008.21       113.63982     -19894.57       46.821306      47.840903      130.28348    
     33700  -20002.698      114.93481     -19887.763      46.813103      47.834295      130.33925    
     33800  -19993.696      113.53056     -19880.165      46.805501      47.828416      130.39502    
     33900  -19985.424      113.18417     -19872.24       46.798107      47.822687      130.45079    
     34000  -19982.512      116.45833     -19866.054      46.789929      47.815608      130.50656    
     34100  -19978.751      114.52285     -19864.228      46.783231      47.809707      130.56234    
     34200  -19974.224      113.80802     -19860.416      46.775312      47.802545      130.61811    
     34300  -19966.276      112.32612     -19853.95       46.767744      47.796003      130.67388    
     34400  -19962.309      117.78446     -19844.524      46.759631      47.789207      130.72965    
     34500  -19951.067      113.91931     -19837.147      46.751024      47.781601      130.78542    
     34600  -19947.742      115.46526     -19832.277      46.7439        47.775045      130.8412     
     34700  -19944.379      116.37381     -19828.005      46.735861      47.767103      130.89697    
     34800  -19936.036      112.83131     -19823.205      46.728342      47.759935      130.95274    
     34900  -19929.984      113.55121     -19816.433      46.721309      47.753994      131.00851    
     35000  -19919.495      113.73538     -19805.759      46.712518      47.747433      131.06428    
     35100  -19914.791      115.93801     -19798.853      46.703828      47.741877      131.12006    
     35200  -19910.799      114.79459     -19796.005      46.694585      47.736675      131.17583    
     35300  -19906.714      114.68725     -19792.027      46.685165      47.730204      131.2316     
     35400  -19898.627      112.85277     -19785.774      46.677414      47.723583      131.28737    
     35500  -19892.514      114.23831     -19778.276      46.668927      47.715293      131.34314    
     35600  -19886.81       116.05329     -19770.756      46.661163      47.708126      131.39892    
     35700  -19878.166      116.89418     -19761.271      46.653032      47.70128       131.45469    
     35800  -19871.82       116.01733     -19755.803      46.644478      47.694494      131.51046    
     35900  -19867.084      113.32812     -19753.756      46.63592       47.687849      131.56623    
     36000  -19861.112      112.02729     -19749.085      46.626585      47.680443      131.622      
     36100  -19855.992      112.77975     -19743.212      46.618421      47.673349      131.67778    
     36200  -19850.211      114.48605     -19735.725      46.610013      47.665465      131.73355    
     36300  -19841.418      115.27061     -19726.147      46.602188      47.657441      131.78932    
     36400  -19835.545      116.10479     -19719.44       46.59422       47.649786      131.84509    
     36500  -19831.771      114.44254     -19717.328      46.585586      47.642603      131.90087    
     36600  -19826.912      113.21461     -19713.698      46.57656       47.63559       131.95664    
     36700  -19818.932      112.11458     -19706.817      46.567348      47.628043      132.01241    
     36800  -19812.236      113.76264     -19698.473      46.558603      47.620692      132.06818    
     36900  -19804.461      113.63981     -19690.821      46.549959      47.612791      132.12395    
     37000  -19799.412      117.19129     -19682.22       46.540323      47.603633      132.17973    
     37100  -19791.83       116.82567     -19675.004      46.532393      47.596344      132.2355     
     37200  -19787.079      113.92003     -19673.159      46.523195      47.589033      132.29127    
     37300  -19782.698      113.05281     -19669.646      46.512669      47.58143       132.34704    
     37400  -19776.163      112.42069     -19663.742      46.503012      47.575875      132.40281    
     37500  -19770.238      114.95514     -19655.283      46.49213       47.568755      132.45859    
     37600  -19760.635      114.82256     -19645.812      46.482575      47.561454      132.51436    
     37700  -19755.716      116.25707     -19639.459      46.474046      47.553284      132.57013    
     37800  -19751.041      115.97639     -19635.065      46.465433      47.543649      132.6259     
     37900  -19742.592      112.58383     -19630.008      46.458004      47.534529      132.68167    
     38000  -19737.818      112.94243     -19624.876      46.449715      47.525105      132.73745    
     38100  -19732.111      113.2406      -19618.871      46.440556      47.516379      132.79322    
     38200  -19725.388      114.21911     -19611.169      46.430791      47.509133      132.84899    
     38300  -19715.16       112.37302     -19602.787      46.419705      47.501928      132.90476    
     38400  -19712.168      114.89774     -19597.27       46.409166      47.494677      132.96053    
     38500  -19708.169      112.80798     -19595.361      46.399228      47.486255      133.01631    
     38600  -19701.548      111.57502     -19589.973      46.390431      47.477206      133.07208    
     38700  -19694.257      112.82137     -19581.435      46.38199       47.467569      133.12785    
     38800  -19686.665      113.56892     -19573.096      46.373706      47.45773       133.18362    
     38900  -19679.132      112.57186     -19566.56       46.364605      47.447878      133.23939    
     39000  -19675.982      115.17211     -19560.81       46.354503      47.438922      133.29517    
     39100  -19668.47       112.31875     -19556.151      46.344487      47.431401      133.35094    
     39200  -19663.463      109.04047     -19554.422      46.333529      47.423666      133.40671    
     39300  -19659.259      110.57966     -19548.679      46.322612      47.416416      133.46248    
     39400  -19649.337      109.72639     -19539.611      46.312789      47.409519      133.51825    
     39500  -19643.822      112.68852     -19531.134      46.301809      47.400104      133.57403    
     39600  -19638.682      115.9431      -19522.739      46.292718      47.391063      133.6298     
     39700  -19630.952      115.0792      -19515.872      46.283347      47.381319      133.68557    
     39800  -19627.045      115.1359      -19511.909      46.27248       47.37108       133.74134    
     39900  -19618.979      109.99248     -19508.986      46.262463      47.362985      133.79711    
     40000  -19613.489      112.12171     -19501.367      46.251256      47.354275      133.85289    
     40100  -19604.434      112.38078     -19492.053      46.240434      47.346024      133.90866    
     40200  -19599.716      114.97087     -19484.745      46.230459      47.336989      133.96443    
     40300  -19591.027      112.52156     -19478.505      46.220809      47.326615      134.0202     
     40400  -19585.084      111.90569     -19473.178      46.212292      47.316504      134.07597    
     40500  -19580.033      110.20118     -19469.832      46.202668      47.30624       134.13175    
     40600  -19576.904      112.13979     -19464.764      46.192982      47.29701       134.18752    
     40700  -19568.203      113.49612     -19454.707      46.182834      47.288603      134.24329    
     40800  -19559.508      114.11597     -19445.392      46.171717      47.279963      134.29906    
     40900  -19552.221      112.65118     -19439.569      46.16069       47.271153      134.35483    
     41000  -19547.38       111.50369     -19435.876      46.149118      47.261055      134.41061    
     41100  -19542.587      111.35916     -19431.227      46.138988      47.251019      134.46638    
     41200  -19534.303      112.11768     -19422.186      46.129051      47.240864      134.52215    
     41300  -19527.339      115.94703     -19411.392      46.117926      47.230167      134.57792    
     41400  -19520.918      115.03253     -19405.886      46.107783      47.221496      134.63369    
     41500  -19515.683      112.86049     -19402.822      46.09651       47.212159      134.68947    
     41600  -19511.949      114.0313      -19397.917      46.085113      47.202993      134.74524    
     41700  -19505.65       114.45346     -19391.197      46.074548      47.194631      134.80101    
     41800  -19496.451      114.50483     -19381.946      46.062923      47.18514       134.85678    
     41900  -19488.057      116.09277     -19371.964      46.051919      47.175774      134.91256    
     42000  -19481.938      114.61649     -19367.322      46.041675      47.166273      134.96833    
     42100  -19475.657      111.77874     -19363.878      46.03092       47.155075      135.0241     
     42200  -19471.841      113.88937     -19357.952      46.021409      47.144643      135.07987    
     42300  -19464.239      112.33631     -19351.903      46.011474      47.134334      135.13564    
     42400  -19457.048      112.43612     -19344.612      45.99982       47.123437      135.19142    
     42500  -19449.723      115.23992     -19334.483      45.989574      47.114363      135.24719    
     42600  -19442.376      115.41223     -19326.964      45.977891      47.104196      135.30296    
     42700  -19437.857      113.32649     -19324.531      45.96693       47.094083      135.35873    
     42800  -19433.193      113.64812     -19319.545      45.956556      47.08509       135.4145     
     42900  -19424.788      112.30991     -19312.478      45.944347      47.075001      135.47028    
     43000  -19417.446      114.05997     -19303.386      45.93323       47.066481      135.52605    
     43100  -19409.338      114.61274     -19294.726      45.921083      47.057375      135.58182    
     43200  -19401.966      113.62392     -19288.342      45.908859      47.047406      135.63759    
     43300  -19398.533      112.32037     -19286.213      45.898432      47.038009      135.69336    
     43400  -19394.081      111.79065     -19282.29       45.887613      47.02731       135.74914    
     43500  -19387.16       110.91992     -19276.24       45.877127      47.0172        135.80491    
     43600  -19380.311      114.18444     -19266.127      45.866359      47.00752       135.86068    
     43700  -19374.331      116.57189     -19257.759      45.855044      46.998166      135.91645    
     43800  -19367.164      114.86626     -19252.297      45.843205      46.989057      135.97222    
     43900  -19359.956      112.22393     -19247.732      45.830609      46.9792        136.028      
     44000  -19356.293      114.25389     -19242.04       45.819136      46.969072      136.08377    
     44100  -19347.434      111.72771     -19235.706      45.808144      46.958223      136.13954    
     44200  -19340.081      112.63982     -19227.441      45.796797      46.947395      136.19531    
     44300  -19331.441      113.11436     -19218.326      45.785884      46.93764       136.25108    
     44400  -19326.803      115.62511     -19211.178      45.774614      46.927339      136.30686    
     44500  -19321.116      113.92718     -19207.189      45.764472      46.917077      136.36263    
     44600  -19314.211      110.93098     -19203.28       45.753942      46.905716      136.4184     
     44700  -19308.609      112.67226     -19195.937      45.744466      46.895241      136.47417    
     44800  -19300.211      115.78934     -19184.422      45.734623      46.885264      136.52994    
     44900  -19290.139      113.11003     -19177.029      45.72203       46.87488       136.58572    
     45000  -19287.826      114.4487      -19173.377      45.710413      46.867146      136.64149    
     45100  -19283.882      114.49816     -19169.384      45.698291      46.858455      136.69726    
     45200  -19276.57       113.23046     -19163.34       45.687009      46.848428      136.75303    
     45300  -19270.352      115.48217     -19154.87       45.677124      46.83768       136.8088     
     45400  -19260.354      115.95805     -19144.396      45.666472      46.825888      136.86458    
     45500  -19253.028      115.57276     -19137.455      45.656117      46.815099      136.92035    
     45600  -19249.776      113.81153     -19135.965      45.644918      46.804406      136.97612    
     45700  -19245.314      114.6298      -19130.685      45.63367       46.794396      137.03189    
     45800  -19237.427      114.4179      -19123.009      45.622339      46.784608      137.08766    
     45900  -19230.181      116.22478     -19113.956      45.611637      46.774737      137.14344    
     46000  -19221.178      114.81562     -19106.363      45.601738      46.765082      137.19921    
     46100  -19215.429      112.04247     -19103.387      45.591174      46.754321      137.25498    
     46200  -19213.073      113.72352     -19099.349      45.580844      46.743936      137.31075    
     46300  -19204.397      113.09426     -19091.303      45.570714      46.73468       137.36652    
     46400  -19196.445      113.92773     -19082.518      45.558967      46.724501      137.4223     
     46500  -19188.165      112.93602     -19075.229      45.548918      46.715246      137.47807    
     46600  -19182.902      113.97788     -19068.924      45.538781      46.704928      137.53384    
     46700  -19173.649      111.15671     -19062.492      45.528374      46.694083      137.58961    
     46800  -19170.098      113.81418     -19056.284      45.519088      46.684902      137.64538    
     46900  -19164.719      114.30643     -19050.413      45.506649      46.675014      137.70116    
     47000  -19157.641      112.90217     -19044.739      45.495004      46.66689       137.75693    
     47100  -19151.284      111.33602     -19039.948      45.484097      46.659147      137.8127     
     47200  -19144.952      111.77957     -19033.172      45.471895      46.648772      137.86847    
     47300  -19136.285      114.26858     -19022.016      45.462894      46.639716      137.92425    
     47400  -19131.302      117.24401     -19014.058      45.452777      46.629815      137.98002    
     47500  -19124.336      115.24806     -19009.088      45.44106       46.619479      138.03579    
     47600  -19117.237      111.97033     -19005.266      45.43064       46.610772      138.09156    
     47700  -19112.267      113.43348     -18998.833      45.419142      46.600906      138.14733    
     47800  -19105.81       114.68718     -18991.123      45.408963      46.591823      138.20311    
     47900  -19098.839      115.90909     -18982.93       45.399333      46.582735      138.25888    
     48000  -19088.365      113.51565     -18974.849      45.38885       46.572697      138.31465    
     48100  -19081.074      113.93273     -18967.141      45.379651      46.563432      138.37042    
     48200  -19075.885      113.87448     -18962.01       45.369557      46.553885      138.42619    
     48300  -19070.234      111.45959     -18958.774      45.359521      46.544388      138.48197    
     48400  -19065.484      112.56892     -18952.915      45.349691      46.535526      138.53774    
     48500  -19056.666      112.64382     -18944.022      45.338919      46.526528      138.59351    
     48600  -19048.594      114.73814     -18933.855      45.328797      46.51819       138.64928    
     48700  -19041.138      113.91586     -18927.222      45.318832      46.509582      138.70505    
     48800  -19037.127      113.82486     -18923.302      45.308844      46.500618      138.76083    
     48900  -19029.282      111.85179     -18917.43       45.29908       46.491896      138.8166     
     49000  -19021.4        110.82548     -18910.574      45.288732      46.482851      138.87237    
     49100  -19017.518      114.92591     -18902.592      45.27838       46.474057      138.92814    
     49200  -19009.355      114.98544     -18894.369      45.268559      46.46604       138.98391    
     49300  -19003.347      114.44545     -18888.902      45.258162      46.457495      139.03969    
     49400  -18998.296      112.28703     -18886.009      45.248207      46.449062      139.09546    
     49500  -18992.648      113.36725     -18879.28       45.238922      46.441391      139.15123    
     49600  -18984.056      114.37203     -18869.684      45.228762      46.43276       139.207      
     49700  -18974.697      113.7705      -18860.927      45.218864      46.423529      139.26277    
     49800  -18970.189      115.36255     -18854.826      45.209974      46.415022      139.31855    
     49900  -18963.02       113.70636     -18849.313      45.200552      46.405741      139.37432    
     50000  -18957.834      113.68327     -18844.151      45.191404      46.39693       139.43009    
     50100  -18949.897      112.20821     -18837.688      45.182772      46.38804       139.48586    
     50200  -18942.394      114.13844     -18828.256      45.173439      46.378768      139.54163    
     50300  -18936.889      118.47288     -18818.416      45.165568      46.370969      139.59741    
     50400  -18928.775      115.1712      -18813.604      45.156148      46.362957      139.65318    
     50500  -18923.414      113.72358     -18809.691      45.146262      46.355269      139.70895    
     50600  -18914.781      111.50257     -18803.278      45.137548      46.348686      139.76472    
     50700  -18910.974      114.56806     -18796.405      45.128345      46.340836      139.82049    
     50800  -18903.005      113.25597     -18789.749      45.119583      46.332888      139.87627    
     50900  -18897.479      112.82644     -18784.652      45.111574      46.325134      139.93204    
     51000  -18891.167      111.23216     -18779.935      45.102273      46.316069      139.98781    
     51100  -18883.958      112.13414     -18771.824      45.094107      46.308061      140.04358    
     51200  -18873.481      112.91402     -18760.567      45.084816      46.299721      140.09935    
     51300  -18865.875      113.32994     -18752.545      45.074633      46.291246      140.15513    
     51400  -18860.735      113.98946     -18746.746      45.066612      46.28508       140.2109     
     51500  -18854.195      110.94868     -18743.246      45.057209      46.277719      140.26667    
     51600  -18849.398      112.38024     -18737.018      45.047983      46.270007      140.32244    
     51700  -18841.544      112.20706     -18729.337      45.04073       46.263088      140.37821    
     51800  -18832.753      112.26188     -18720.491      45.032026      46.254278      140.43399    
     51900  -18824.668      113.82979     -18710.839      45.024917      46.246455      140.48976    
     52000  -18819.512      117.78456     -18701.727      45.017542      46.238599      140.54553    
     52100  -18812.582      114.24062     -18698.342      45.008814      46.229633      140.6013     
     52200  -18807.889      113.13938     -18694.749      45.001908      46.222313      140.65707    
     52300  -18800.859      111.95339     -18688.906      44.994462      46.214455      140.71285    
     52400  -18792.578      110.84993     -18681.728      44.986103      46.206413      140.76862    
     52500  -18787.051      114.27506     -18672.776      44.978758      46.199124      140.82439    
     52600  -18779.28       116.06116     -18663.218      44.969862      46.191135      140.88016    
     52700  -18770.402      113.77486     -18656.627      44.961687      46.18431       140.93593    
     52800  -18767.846      113.36574     -18654.48       44.954278      46.177886      140.99171    
     52900  -18763.517      114.78568     -18648.731      44.94682       46.170991      141.04748    
     53000  -18756.606      115.05307     -18641.552      44.939619      46.164278      141.10325    
     53100  -18745.804      113.5468      -18632.258      44.931349      46.156816      141.15902    
     53200  -18739.057      117.37951     -18621.678      44.923825      46.149865      141.2148     
     53300  -18731.549      115.28446     -18616.265      44.916167      46.143065      141.27057    
     53400  -18725.864      114.07083     -18611.794      44.908094      46.135725      141.32634    
     53500  -18721.14       115.49258     -18605.647      44.901193      46.129405      141.38211    
     53600  -18712.837      113.19732     -18599.64       44.893384      46.122643      141.43788    
     53700  -18706.92       113.34085     -18593.579      44.886018      46.116022      141.49366    
     53800  -18701.194      113.32097     -18587.873      44.87939       46.109819      141.54943    
     53900  -18695.317      114.04479     -18581.272      44.87165       46.102492      141.6052     
     54000  -18685.1        113.39058     -18571.71       44.864036      46.095569      141.66097    
     54100  -18677.222      115.30794     -18561.914      44.856838      46.088983      141.71674    
     54200  -18671.768      116.14518     -18555.623      44.848898      46.081541      141.77252    
     54300  -18664.385      111.96325     -18552.422      44.842555      46.075064      141.82829    
     54400  -18659.159      113.27023     -18545.889      44.835778      46.068019      141.88406    
     54500  -18651.063      113.81347     -18537.25       44.827984      46.060673      141.93983    
     54600  -18641.737      113.57045     -18528.167      44.822085      46.054851      141.9956     
     54700  -18634.8        112.99066     -18521.809      44.814989      46.048576      142.05138    
     54800  -18631.569      112.06235     -18519.507      44.807435      46.042244      142.10715    
     54900  -18624.634      112.5067      -18512.127      44.800751      46.037338      142.16292    
     55000  -18617.757      115.41728     -18502.339      44.792807      46.031569      142.21869    
     55100  -18608.804      115.21339     -18493.59       44.785198      46.026088      142.27446    
     55200  -18604.531      117.20251     -18487.329      44.778643      46.021097      142.33024    
     55300  -18597.622      112.26289     -18485.359      44.77109       46.014917      142.38601    
     55400  -18588.382      109.99398     -18478.388      44.764317      46.008861      142.44178    
     55500  -18582.093      113.67313     -18468.42       44.757461      46.002248      142.49755    
     55600  -18574.492      115.75413     -18458.738      44.751001      45.995792      142.55332    
     55700  -18566.208      113.94194     -18452.266      44.744719      45.989612      142.6091     
     55800  -18563.122      113.52277     -18449.599      44.737797      45.983312      142.66487    
     55900  -18556.053      113.62534     -18442.427      44.730714      45.977355      142.72064    
     56000  -18546.935      113.11716     -18433.817      44.723582      45.9715        142.77641    
     56100  -18539.036      114.14884     -18424.887      44.716413      45.965873      142.83218    
     56200  -18531.851      115.377       -18416.474      44.710183      45.96055       142.88796    
     56300  -18526.352      115.37586     -18410.976      44.703733      45.955107      142.94373    
     56400  -18519.622      112.20735     -18407.415      44.697414      45.94979       142.9995     
     56500  -18512.344      111.33548     -18401.009      44.690862      45.944445      143.05527    
     56600  -18507.084      113.89896     -18393.185      44.68425       45.938444      143.11104    
     56700  -18498.441      113.78694     -18384.654      44.678675      45.932695      143.16682    
     56800  -18491.127      114.42973     -18376.697      44.672891      45.926735      143.22259    
     56900  -18484.463      113.73272     -18370.73       44.665929      45.920237      143.27836    
     57000  -18479.009      113.00211     -18366.007      44.659875      45.914209      143.33413    
     57100  -18471.539      111.42162     -18360.117      44.653707      45.908183      143.3899     
     57200  -18463.754      112.24369     -18351.51       44.647364      45.90212       143.44568    
     57300  -18456.901      117.8977      -18339.003      44.641398      45.896296      143.50145    
     57400  -18447.942      116.57795     -18331.364      44.635262      45.890394      143.55722    
     57500  -18441.289      114.24304     -18327.046      44.629193      45.884451      143.61299    
     57600  -18435.386      113.64742     -18321.738      44.623786      45.87875       143.66876    
     57700  -18430.322      114.79164     -18315.53       44.618011      45.87258       143.72454    
     57800  -18422.104      113.15189     -18308.953      44.61309       45.866919      143.78031    
     57900  -18416.254      113.30949     -18302.944      44.607379      45.861121      143.83608    
     58000  -18411.621      112.16906     -18299.452      44.601196      45.855406      143.89185    
     58100  -18402.731      111.21037     -18291.52       44.5954        45.850315      143.94762    
     58200  -18394.355      114.18412     -18280.171      44.588384      45.844837      144.0034     
     58300  -18384.964      113.79522     -18271.169      44.581807      45.840434      144.05917    
     58400  -18378.159      113.56246     -18264.596      44.574858      45.835831      144.11494    
     58500  -18372.82       113.00612     -18259.813      44.568097      45.83116       144.17071    
     58600  -18368.163      113.97558     -18254.188      44.561776      45.826151      144.22649    
     58700  -18359.619      113.38796     -18246.231      44.55536       45.820933      144.28226    
     58800  -18351.513      113.77153     -18237.742      44.550051      45.816076      144.33803    
     58900  -18341.712      111.61099     -18230.101      44.543924      45.810347      144.3938     
     59000  -18336.938      113.76239     -18223.176      44.538789      45.805105      144.44957    
     59100  -18331.385      113.07838     -18218.307      44.53332       45.799278      144.50535    
     59200  -18325.127      112.89807     -18212.229      44.527189      45.792801      144.56112    
     59300  -18315.527      112.45462     -18203.073      44.522704      45.787476      144.61689    
     59400  -18308.733      118.64708     -18190.086      44.516418      45.780999      144.67266    
     59500  -18299.217      116.11896     -18183.098      44.510727      45.775157      144.72843    
     59600  -18291.658      112.83098     -18178.827      44.506131      45.770014      144.78421    
     59700  -18286.372      112.8495      -18173.523      44.500006      45.763725      144.83998    
     59800  -18280.812      113.75051     -18167.062      44.495156      45.758718      144.89575    
     59900  -18274.913      114.33209     -18160.58       44.48978       45.753317      144.95152    
     60000  -18266.787      110.84164     -18155.946      44.483648      45.74712       145.00729    
     60100  -18262.752      112.35975     -18150.392      44.479396      45.742439      145.06307    
     60200  -18252.136      112.90861     -18139.228      44.472067      45.736491      145.11884    
     60300  -18244.114      116.59934     -18127.515      44.46586       45.731711      145.17461    
     60400  -18231.795      111.24097     -18120.554      44.460591      45.727767      145.23038    
     60500  -18228.476      112.53705     -18115.939      44.453341      45.722194      145.28615    
     60600  -18221.867      112.68184     -18109.186      44.448956      45.718332      145.34193    
     60700  -18214.619      113.49348     -18101.125      44.442697      45.713231      145.3977     
     60800  -18207.948      116.30215     -18091.646      44.436195      45.708409      145.45347    
     60900  -18197.579      116.68361     -18080.895      44.430654      45.704334      145.50924    
     61000  -18190.199      114.71172     -18075.488      44.423216      45.699077      145.56501    
     61100  -18183.422      112.64066     -18070.781      44.418699      45.695228      145.62079    
     61200  -18176.366      111.91876     -18064.447      44.412737      45.689238      145.67656    
     61300  -18170.176      113.12162     -18057.055      44.407235      45.683066      145.73233    
     61400  -18162.648      112.91498     -18049.733      44.403417      45.677821      145.7881     
     61500  -18158.933      113.86188     -18045.071      44.39675       45.670474      145.84387    
     61600  -18149.58       111.81549     -18037.765      44.393206      45.6656        145.89965    
     61700  -18140.666      113.75674     -18026.909      44.387737      45.660164      145.95542    
     61800  -18130.268      115.13374     -18015.134      44.381443      45.654498      146.01119    
     61900  -18123.102      116.18844     -18006.914      44.377405      45.650786      146.06696    
     62000  -18116.579      115.30521     -18001.274      44.370406      45.645073      146.12273    
     62100  -18110.073      114.39652     -17995.676      44.365095      45.640704      146.17851    
     62200  -18103.412      113.52339     -17989.889      44.359385      45.636187      146.23428    
     62300  -18095.307      112.08333     -17983.224      44.352815      45.630952      146.29005    
     62400  -18087.381      112.37731     -17975.004      44.347403      45.62633       146.34582    
     62500  -18079.062      114.83388     -17964.228      44.341056      45.620928      146.40159    
     62600  -18067.348      114.91092     -17952.437      44.335061      45.616024      146.45737    
     62700  -18060.542      114.16124     -17946.381      44.328703      45.611338      146.51314    
     62800  -18055.79       114.28807     -17941.502      44.321949      45.606716      146.56891    
     62900  -18049.399      114.53328     -17934.866      44.31623       45.602741      146.62468    
     63000  -18039.574      111.57706     -17927.997      44.309768      45.59769       146.68045    
     63100  -18033.79       112.65349     -17921.137      44.304985      45.592842      146.73623    
     63200  -18025.287      110.58649     -17914.7        44.299499      45.587118      146.792      
     63300  -18021.19       111.99296     -17909.197      44.293711      45.581398      146.84777    
     63400  -18013.257      113.25214     -17900.005      44.289334      45.576639      146.90354    
     63500  -18001.477      114.51287     -17886.965      44.28273       45.570109      146.95931    
     63600  -17992.928      116.34153     -17876.586      44.278092      45.5649        147.01509    
     63700  -17986.627      116.89337     -17869.733      44.272933      45.559437      147.07086    
     63800  -17978.132      114.77034     -17863.362      44.266725      45.553902      147.12663    
     63900  -17972.411      116.37953     -17856.031      44.261479      45.549855      147.1824     
     64000  -17963.346      114.36529     -17848.981      44.254183      45.545028      147.23818    
     64100  -17953.938      112.55908     -17841.379      44.248235      45.54074       147.29395    
     64200  -17946.767      114.219       -17832.548      44.242243      45.535766      147.34972    
     64300  -17936.369      112.36075     -17824.009      44.236124      45.530237      147.40549    
     64400  -17928.462      113.24077     -17815.222      44.230668      45.525335      147.46126    
     64500  -17923.296      116.0869      -17807.209      44.224238      45.519788      147.51704    
     64600  -17913.517      113.83207     -17799.685      44.218927      45.514982      147.57281    
     64700  -17905.604      113.00557     -17792.598      44.213351      45.509738      147.62858    
     64800  -17899.408      115.81638     -17783.592      44.207615      45.504076      147.68435    
     64900  -17887.482      112.47567     -17775.007      44.203164      45.499478      147.74012    
     65000  -17878.891      111.31612     -17767.575      44.196776      45.493775      147.7959     
     65100  -17871.632      110.47405     -17761.158      44.191473      45.489221      147.85167    
     65200  -17867.397      111.74564     -17755.651      44.185249      45.484257      147.90744    
     65300  -17859.754      111.67644     -17748.078      44.178138      45.478776      147.96321    
     65400  -17847.747      114.9191      -17732.828      44.172989      45.474322      148.01898    
     65500  -17836.905      115.07405     -17721.831      44.166077      45.468386      148.07476    
     65600  -17827.856      113.64255     -17714.214      44.160508      45.463435      148.13053    
     65700  -17823.478      114.86972     -17708.608      44.154454      45.458238      148.1863     
     65800  -17815.082      114.63015     -17700.451      44.148195      45.452432      148.24207    
     65900  -17804.979      113.96378     -17691.015      44.143259      45.447115      148.29784    
     66000  -17796.249      111.62587     -17684.623      44.136697      45.440901      148.35362    
     66100  -17791.668      113.47493     -17678.193      44.131763      45.436177      148.40939    
     66200  -17780.28       112.05458     -17668.225      44.125542      45.430649      148.46516    
     66300  -17770.83       113.69034     -17657.14       44.119558      45.424961      148.52093    
     66400  -17762.853      115.93126     -17646.922      44.114911      45.419921      148.5767     
     66500  -17751.232      112.87685     -17638.355      44.107439      45.413439      148.63248    
     66600  -17744.715      115.29507     -17629.42       44.102568      45.409166      148.68825    
     66700  -17735.621      113.84522     -17621.776      44.094943      45.403474      148.74402    
     66800  -17727.939      115.79402     -17612.145      44.08846       45.398848      148.79979    
     66900  -17716.782      113.55789     -17603.224      44.082895      45.394645      148.85556    
     67000  -17708.161      112.79596     -17595.365      44.075111      45.388639      148.91134    
     67100  -17698.804      111.91324     -17586.891      44.07059       45.384241      148.96711    
     67200  -17691.731      111.90407     -17579.827      44.063189      45.37743       149.02288    
     67300  -17680.27       107.59242     -17572.677      44.058192      45.372211      149.07865    
     67400  -17672.669      111.69282     -17560.976      44.052019      45.36633       149.13442    
     67500  -17660.79       111.7416      -17549.048      44.045076      45.359986      149.1902     
     67600  -17653.107      115.16928     -17537.938      44.040583      45.355533      149.24597    
     67700  -17644.61       112.24777     -17532.362      44.032922      45.349235      149.30174    
     67800  -17634.921      111.58474     -17523.337      44.02759       45.344779      149.35751    
     67900  -17626.736      113.46881     -17513.267      44.020473      45.339149      149.41328    
     68000  -17615.691      113.06933     -17502.621      44.013252      45.333303      149.46906    
     68100  -17606.231      113.44215     -17492.789      44.008095      45.328596      149.52483    
     68200  -17598.025      112.27736     -17485.748      44.000448      45.322124      149.5806     
     68300  -17585.753      110.65931     -17475.094      43.995506      45.31772       149.63637    
     68400  -17580.746      115.64743     -17465.099      43.988184      45.312407      149.69214    
     68500  -17569.325      112.45801     -17456.867      43.981227      45.307858      149.74792    
     68600  -17559.546      112.68863     -17446.857      43.974706      45.303611      149.80369    
     68700  -17547.511      112.13726     -17435.374      43.966259      45.297733      149.85946    
     68800  -17544.242      118.37939     -17425.862      43.960486      45.293596      149.91523    
     68900  -17533.334      115.75006     -17417.584      43.9525        45.287751      149.971      
[...]
    181600  -20840.196      111.68078     -20728.516      44.027547      37.221338      212.82609    
    181700  -20839.536      113.45215     -20726.084      44.022966      37.214806      212.88186    
    181800  -20840.299      116.04819     -20724.25       44.017344      37.208038      212.93763    
    181900  -20840.214      114.73079     -20725.483      44.012974      37.201353      212.99341    
    182000  -20839.171      109.62546     -20729.545      44.009663      37.195306      213.04918    
    182100  -20842.851      112.92842     -20729.922      44.002868      37.188365      213.10495    
    182200  -20839.042      111.18374     -20727.859      43.994999      37.181204      213.16072    
    182300  -20839.075      112.25396     -20726.821      43.988906      37.173506      213.21649    
    182400  -20844.178      117.56705     -20726.611      43.983205      37.166097      213.27227    
    182500  -20838.806      112.05144     -20726.755      43.977025      37.158412      213.32804    
    182600  -20839.686      112.70839     -20726.978      43.973601      37.151582      213.38381    
    182700  -20842.135      114.63934     -20727.495      43.971715      37.144102      213.43958    
    182800  -20839.174      111.22528     -20727.949      43.969579      37.136903      213.49535    
    182900  -20841.422      113.96051     -20727.462      43.965375      37.129694      213.55113    
    183000  -20838.182      112.6821      -20725.5        43.959499      37.122087      213.6069     
    183100  -20839.543      116.43909     -20723.104      43.951955      37.115096      213.66267    
    183200  -20837.399      114.84873     -20722.55       43.941486      37.107458      213.71844    
    183300  -20840.14       112.80781     -20727.332      43.930351      37.100311      213.77421    
    183400  -20841.529      112.53993     -20728.99       43.920176      37.092727      213.82999    
    183500  -20841.648      113.83787     -20727.81       43.912012      37.085878      213.88576    
    183600  -20839.722      114.59976     -20725.122      43.904867      37.078917      213.94153    
    183700  -20838.776      116.17426     -20722.602      43.899406      37.071554      213.9973     
    183800  -20837.96       114.83288     -20723.127      43.894826      37.064532      214.05307    
    183900  -20841.491      113.04288     -20728.448      43.889452      37.056699      214.10885    
    184000  -20842.588      112.72604     -20729.862      43.882554      37.049481      214.16462    
    184100  -20841.454      113.23361     -20728.221      43.874845      37.041471      214.22039    
    184200  -20839.373      114.38006     -20724.993      43.866608      37.034006      214.27616    
    184300  -20838.443      114.35911     -20724.084      43.85691       37.027286      214.33193    
    184400  -20837.934      112.19414     -20725.74       43.845894      37.019934      214.38771    
    184500  -20839.349      108.75331     -20730.596      43.837255      37.01353       214.44348    
    184600  -20841.24       110.77692     -20730.463      43.828228      37.005879      214.49925    
    184700  -20840.284      112.65689     -20727.627      43.819645      36.999327      214.55502    
    184800  -20839.756      114.45957     -20725.296      43.811583      36.992573      214.61079    
    184900  -20839.867      114.82993     -20725.037      43.804836      36.985977      214.66657    
    185000  -20841.09       113.70298     -20727.388      43.797746      36.979105      214.72234    
    185100  -20843.011      111.57623     -20731.435      43.789916      36.971347      214.77811    
    185200  -20843.081      112.62953     -20730.452      43.780453      36.963367      214.83388    
    185300  -20840.181      112.25061     -20727.93       43.769422      36.954646      214.88965    
    185400  -20838.983      112.80691     -20726.176      43.757491      36.946963      214.94543    
    185500  -20838.623      113.04613     -20725.576      43.745673      36.939017      215.0012     
    185600  -20839.543      113.55369     -20725.989      43.7343        36.93129       215.05697    
    185700  -20841.826      111.82897     -20729.997      43.723213      36.924369      215.11274    
    185800  -20840.983      110.02782     -20730.956      43.713326      36.916929      215.16851    
    185900  -20841.344      112.90444     -20728.44       43.70618       36.909825      215.22429    
    186000  -20838.095      112.43553     -20725.659      43.698223      36.902261      215.28006    
    186100  -20838.183      112.33705     -20725.846      43.692155      36.895704      215.33583    
    186200  -20840.126      113.53082     -20726.595      43.685443      36.888264      215.3916     
    186300  -20839.734      112.28159     -20727.452      43.677963      36.881236      215.44738    
    186400  -20841.959      112.7396      -20729.22       43.669835      36.874084      215.50315    
    186500  -20840.809      110.60281     -20730.207      43.661217      36.866844      215.55892    
    186600  -20841.099      112.88791     -20728.212      43.652138      36.859138      215.61469    
    186700  -20837.235      112.88924     -20724.346      43.642206      36.850508      215.67046    
    186800  -20838.875      114.57123     -20724.304      43.634724      36.842358      215.72624    
    186900  -20841.329      114.93406     -20726.395      43.628449      36.833427      215.78201    
    187000  -20840.798      112.43344     -20728.364      43.622433      36.825697      215.83778    
    187100  -20840.454      112.24765     -20728.206      43.618722      36.81811       215.89355    
    187200  -20841.02       113.74642     -20727.273      43.617535      36.810253      215.94932    
    187300  -20838.079      112.01156     -20726.067      43.614793      36.802306      216.0051     
    187400  -20837.818      113.12562     -20724.692      43.61015       36.794663      216.06087    
    187500  -20837.003      113.78972     -20723.213      43.603669      36.786895      216.11664    
    187600  -20839.993      116.62888     -20723.364      43.594264      36.778659      216.17241    
    187700  -20838.725      111.28666     -20727.438      43.5844        36.771676      216.22818    
    187800  -20841.73       112.85186     -20728.878      43.573114      36.764296      216.28396    
    187900  -20840.148      112.38538     -20727.763      43.564736      36.757505      216.33973    
    188000  -20838.227      114.29637     -20723.93       43.557613      36.75029       216.3955     
    188100  -20839.063      116.33438     -20722.729      43.551512      36.743925      216.45127    
    188200  -20840.541      116.48853     -20724.052      43.545567      36.736354      216.50704    
    188300  -20839.784      114.10894     -20725.675      43.540037      36.728282      216.56282    
    188400  -20840.438      113.48286     -20726.955      43.535762      36.720847      216.61859    
    188500  -20839.031      111.64767     -20727.383      43.530736      36.713161      216.67436    
    188600  -20839.61       114.05601     -20725.554      43.521674      36.705448      216.73013    
    188700  -20839.017      115.86532     -20723.152      43.510884      36.697445      216.7859     
    188800  -20839.777      115.8081      -20723.968      43.500994      36.690084      216.84168    
    188900  -20839.5        111.75884     -20727.741      43.492388      36.6834        216.89745    
    189000  -20840.933      111.9999      -20728.933      43.483963      36.676753      216.95322    
    189100  -20839.84       112.12317     -20727.717      43.477969      36.670153      217.00899    
    189200  -20840.621      114.42446     -20726.197      43.474351      36.664083      217.06476    
    189300  -20837.139      111.60925     -20725.53       43.469637      36.658038      217.12054    
    189400  -20841.36       115.96693     -20725.393      43.464059      36.651828      217.17631    
    189500  -20841.227      114.01766     -20727.209      43.457569      36.645004      217.23208    
    189600  -20839.48       110.87986     -20728.601      43.450584      36.638663      217.28785    
    189700  -20839.719      111.82143     -20727.898      43.440582      36.631032      217.34362    
    189800  -20839.366      114.17327     -20725.193      43.43095       36.623756      217.3994     
    189900  -20839.478      115.80705     -20723.671      43.422099      36.616679      217.45517    
    190000  -20841.203      116.07432     -20725.129      43.412078      36.609824      217.51094    
    190100  -20842.674      112.85918     -20729.815      43.403063      36.603074      217.56671    
    190200  -20842.75       112.85245     -20729.898      43.395542      36.59625       217.62248    
    190300  -20838.475      111.1263      -20727.349      43.387623      36.590185      217.67826    
    190400  -20840.02       114.44596     -20725.574      43.377983      36.584003      217.73403    
    190500  -20839.928      114.5529      -20725.375      43.36807       36.577312      217.7898     
    190600  -20838.173      112.18567     -20725.987      43.358182      36.570186      217.84557    
    190700  -20841.185      114.73231     -20726.453      43.348631      36.56326       217.90134    
    190800  -20840.479      113.69593     -20726.783      43.339478      36.555927      217.95712    
    190900  -20840.891      113.38353     -20727.507      43.331299      36.548333      218.01289    
    191000  -20839.927      108.85435     -20731.072      43.322357      36.541231      218.06866    
    191100  -20843.797      112.22004     -20731.577      43.311889      36.534904      218.12443    
    191200  -20839.286      111.76462     -20727.521      43.302628      36.529012      218.1802     
    191300  -20839.277      113.55891     -20725.718      43.291575      36.522825      218.23598    
    191400  -20839.454      113.56564     -20725.888      43.282447      36.517056      218.29175    
    191500  -20839.694      112.78246     -20726.912      43.27548       36.511247      218.34752    
    191600  -20843.27       113.54417     -20729.726      43.27016       36.505725      218.40329    
    191700  -20841.325      109.7161      -20731.608      43.264442      36.499781      218.45907    
    191800  -20841.604      112.8378      -20728.766      43.257901      36.493881      218.51484    
    191900  -20838.057      112.67189     -20725.385      43.249888      36.488277      218.57061    
    192000  -20840.855      115.63152     -20725.224      43.237751      36.481176      218.62638    
    192100  -20838.306      111.80066     -20726.505      43.224799      36.475177      218.68215    
    192200  -20840.627      110.92491     -20729.702      43.210847      36.46863       218.73793    
    192300  -20844.738      112.86292     -20731.876      43.196797      36.462319      218.7937     
    192400  -20841.289      113.09677     -20728.192      43.183146      36.455464      218.84947    
    192500  -20839.072      114.28733     -20724.784      43.16943       36.448331      218.90524    
    192600  -20839.497      114.41495     -20725.083      43.159282      36.441958      218.96101    
    192700  -20842.214      114.73239     -20727.482      43.147532      36.434904      219.01679    
    192800  -20841.636      111.74204     -20729.894      43.134203      36.428206      219.07256    
    192900  -20843.459      113.54607     -20729.913      43.117959      36.421308      219.12833    
    193000  -20839.299      114.77265     -20724.527      43.100124      36.414963      219.1841     
    193100  -20838.342      114.52955     -20723.813      43.080718      36.409134      219.23987    
    193200  -20841.063      114.88921     -20726.174      43.061441      36.403886      219.29565    
    193300  -20841.429      112.65894     -20728.77       43.044632      36.398911      219.35142    
    193400  -20841.929      112.34325     -20729.585      43.025456      36.39262       219.40719    
    193500  -20841.254      112.66671     -20728.587      43.00513       36.3866        219.46296    
    193600  -20841.436      113.97461     -20727.461      42.985855      36.380643      219.51873    
    193700  -20839.275      112.22953     -20727.046      42.963919      36.373585      219.57451    
    193800  -20840.254      112.76147     -20727.493      42.940491      36.367282      219.63028    
    193900  -20842.568      114.01291     -20728.555      42.917564      36.360639      219.68605    
    194000  -20841.915      111.00793     -20730.907      42.896134      36.35551       219.74182    
    194100  -20846.393      112.71197     -20733.681      42.874964      36.35016       219.79759    
    194200  -20843.52       111.14844     -20732.371      42.856467      36.344621      219.85337    
    194300  -20840.469      112.91445     -20727.554      42.838393      36.339824      219.90914    
    194400  -20843.44       116.44857     -20726.992      42.818099      36.333436      219.96491    
    194500  -20841.823      113.25056     -20728.572      42.798381      36.328435      220.02068    
    194600  -20844.053      112.72207     -20731.331      42.776169      36.323563      220.07645    
    194700  -20846.047      113.1212      -20732.926      42.751647      36.319672      220.13223    
    194800  -20842.734      111.50566     -20731.229      42.726432      36.315448      220.188      
    194900  -20842.282      115.09509     -20727.187      42.703431      36.311107      220.24377    
    195000  -20841.895      115.41779     -20726.477      42.681358      36.307935      220.29954    
    195100  -20843.657      114.93136     -20728.726      42.661533      36.305002      220.35531    
    195200  -20843.264      111.40916     -20731.855      42.643777      36.301121      220.41109    
    195300  -20844.222      112.43469     -20731.787      42.623582      36.296115      220.46686    
    195400  -20841.49       111.31248     -20730.178      42.60438       36.291332      220.52263    
    195500  -20844.821      115.48793     -20729.333      42.585905      36.286382      220.5784     
    195600  -20844.314      115.73916     -20728.575      42.567454      36.281937      220.63417    
    195700  -20842.613      114.27664     -20728.336      42.54752       36.277211      220.68995    
    195800  -20845.367      115.10297     -20730.264      42.527111      36.272583      220.74572    
    195900  -20843.568      110.38048     -20733.187      42.507293      36.268845      220.80149    
    196000  -20844.294      111.89679     -20732.397      42.488711      36.264525      220.85726    
    196100  -20843.5        114.83044     -20728.67       42.471482      36.26095       220.91303    
    196200  -20843.835      116.2165      -20727.618      42.45447       36.256569      220.96881    
    196300  -20842.823      114.46363     -20728.359      42.439547      36.252291      221.02458    
    196400  -20843.029      113.4979      -20729.531      42.425166      36.248214      221.08035    
    196500  -20844.036      112.74861     -20731.288      42.411898      36.244925      221.13612    
    196600  -20844.659      110.26483     -20734.394      42.397522      36.240632      221.19189    
    196700  -20846.438      112.15879     -20734.28       42.382715      36.23604       221.24767    
    196800  -20843.571      113.7227      -20729.848      42.368062      36.231908      221.30344    
    196900  -20842.733      114.60908     -20728.124      42.353327      36.228524      221.35921    
    197000  -20839.942      112.16701     -20727.775      42.338013      36.225339      221.41498    
    197100  -20843.555      114.50453     -20729.05       42.325052      36.222041      221.47075    
    197200  -20845.351      112.31696     -20733.034      42.315713      36.21983       221.52653    
    197300  -20844.648      111.69862     -20732.949      42.306198      36.217384      221.5823     
    197400  -20840.257      110.61133     -20729.646      42.297168      36.21519       221.63807    
    197500  -20843.405      114.94297     -20728.462      42.289284      36.212385      221.69384    
    197600  -20843.046      114.37313     -20728.673      42.280448      36.209083      221.74962    
    197700  -20844.225      114.38817     -20729.837      42.270015      36.206393      221.80539    
    197800  -20843.841      111.61449     -20732.227      42.260454      36.20489       221.86116    
    197900  -20844.625      110.5739      -20734.051      42.251853      36.203208      221.91693    
    198000  -20842.813      111.57661     -20731.236      42.24256       36.201107      221.9727     
    198100  -20840.484      112.72618     -20727.758      42.232445      36.199241      222.02848    
    198200  -20840.951      113.47058     -20727.481      42.223777      36.196957      222.08425    
    198300  -20843.046      113.77955     -20729.267      42.218823      36.194879      222.14002    
    198400  -20842.885      110.59141     -20732.294      42.211993      36.193079      222.19579    
    198500  -20845.177      111.77986     -20733.397      42.205855      36.191314      222.25156    
    198600  -20843.027      114.9619      -20728.065      42.199935      36.189004      222.30734    
    198700  -20839.068      112.56311     -20726.505      42.194362      36.187386      222.36311    
    198800  -20839.691      111.96336     -20727.728      42.186314      36.185042      222.41888    
    198900  -20844.293      113.67662     -20730.616      42.180143      36.182531      222.47465    
    199000  -20843.053      110.99705     -20732.056      42.175718      36.179205      222.53042    
    199100  -20842.093      112.37037     -20729.723      42.169596      36.176833      222.5862     
    199200  -20841.079      115.8687      -20725.21       42.162944      36.173756      222.64197    
    199300  -20841.487      115.13556     -20726.352      42.15763       36.170867      222.69774    
    199400  -20844.982      115.38269     -20729.599      42.151645      36.168782      222.75351    
    199500  -20843.526      112.67588     -20730.85       42.144727      36.165955      222.80928    
    199600  -20841.65       111.69923     -20729.951      42.13993       36.163468      222.86506    
    199700  -20840.613      114.30877     -20726.304      42.135492      36.159829      222.92083    
    199800  -20839.043      115.49612     -20723.547      42.131672      36.156982      222.9766     
    199900  -20841.273      115.92116     -20725.352      42.128195      36.153572      223.03237    
    200000  -20841.287      113.05028     -20728.237      42.124119      36.150262      223.08814    
Loop time of 1966 on 8 procs for 200000 steps with 2928 atoms

Performance: 8.789 ns/day, 2.731 hours/ns, 101.729 timesteps/s
92.0% CPU use with 8 MPI tasks x 1 OpenMP threads

MPI task timing breakdown:
Section |  min time  |  avg time  |  max time  |%varavg| %total
---------------------------------------------------------------
Pair    | 527.68     | 1182.8     | 1751       |1332.7 | 60.17
Neigh   | 3.1488     | 8.6833     | 14.32      | 131.6 |  0.44
Comm    | 137.24     | 474.2      | 803.65     |1129.7 | 24.12
Output  | 0.72342    | 0.72936    | 0.76795    |   1.7 |  0.04
Modify  | 58.249     | 295.7      | 918.73     |2067.2 | 15.04
Other   |            | 3.844      |            |       |  0.20

Nlocal:            366 ave        1213 max           0 min
Histogram: 4 1 0 0 1 0 0 0 1 1
Nghost:         1857.5 ave        4701 max           0 min
Histogram: 2 2 0 1 0 1 0 0 0 2
Neighs:              0 ave           0 max           0 min
Histogram: 8 0 0 0 0 0 0 0 0 0

Total # of neighbors = 0
Ave neighs/atom = 0
Neighbor list builds = 980
Dangerous builds = 0
Total wall time: 0:32:46
