LAMMPS (23 Jun 2022 - Update 1)
OMP_NUM_THREADS environment is not set. Defaulting to 1 thread. (../comm.cpp:98)
  using 1 OpenMP thread(s) per MPI task
Reading data file ...
  orthogonal box = (-25.0214 -25.0214 -39.404249) to (25.0214 25.0214 76.989751)
  1 by 2 by 4 MPI processor grid
  reading atoms ...
  3024 atoms
  read_data CPU = 0.010 seconds
Reading airebo potential file CH.airebo with DATE: 2011-10-25
Reading airebo potential file CH.airebo with DATE: 2011-10-25
Reading airebo potential file CH.airebo with DATE: 2011-10-25
Neighbor list info ...
  update every 1 steps, delay 0 steps, check yes
  max neighbors/atom: 2000, page size: 100000
  master list distance cutoff = 13.2
  ghost atom cutoff = 13.2
  binsize = 6.6, bins = 8 8 18
  6 neighbor lists, perpetual/occasional/extra = 6 0 0
  (1) pair airebo, perpetual, skip from (5)
      attributes: full, newton on, ghost
      pair build: skip/ghost
      stencil: none
      bin: none
  (2) pair airebo, perpetual, skip from (5)
      attributes: full, newton on, ghost
      pair build: skip/ghost
      stencil: none
      bin: none
  (3) pair airebo, perpetual, skip from (5)
      attributes: full, newton on, ghost
      pair build: skip/ghost
      stencil: none
      bin: none
  (4) pair lj/cut, perpetual, skip from (6)
      attributes: half, newton on
      pair build: skip
      stencil: none
      bin: none
  (5) neighbor class addition, perpetual
      attributes: full, newton on, ghost
      pair build: full/bin/ghost
      stencil: full/ghost/bin/3d
      bin: standard
  (6) neighbor class addition, perpetual
      attributes: half, newton on
      pair build: half/bin/atomonly/newton
      stencil: half/bin/3d
      bin: standard
Setting up sd style minimization ...
  Unit style    : metal
  Current step  : 0
Per MPI rank memory allocation (min/avg/max) = 10.25 | 10.25 | 10.25 Mbytes
   Step          Temp          E_pair         E_mol          TotEng         Press     
         0   0             -20987.364      0             -20987.364      27882.702    
        14   0             -21946.82       0             -21946.82       631.53972    
Loop time of 0.128126 on 8 procs for 14 steps with 3024 atoms

99.0% CPU use with 8 MPI tasks x 1 OpenMP threads

Minimization stats:
  Stopping criterion = energy tolerance
  Energy initial, next-to-last, final = 
     -20987.3641320402  -21945.2476008186  -21946.8197421693
  Force two-norm initial, final = 775.07538 18.985723
  Force max component initial, final = 108.2718 2.6933237
  Final line search alpha, max atom move = 0.068300328 0.18395489
  Iterations, force evaluations = 14 23

MPI task timing breakdown:
Section |  min time  |  avg time  |  max time  |%varavg| %total
---------------------------------------------------------------
Pair    | 0.11734    | 0.12201    | 0.1258     |   0.9 | 95.23
Neigh   | 0          | 0          | 0          |   0.0 |  0.00
Comm    | 0.0016251  | 0.005296   | 0.0098547  |   4.3 |  4.13
Output  | 0          | 0          | 0          |   0.0 |  0.00
Modify  | 0          | 0          | 0          |   0.0 |  0.00
Other   |            | 0.0008162  |            |       |  0.64

Nlocal:            378 ave         390 max         366 min
Histogram: 4 0 0 0 0 0 0 0 0 4
Nghost:           1060 ave        1072 max        1048 min
Histogram: 4 0 0 0 0 0 0 0 0 4
Neighs:              0 ave           0 max           0 min
Histogram: 8 0 0 0 0 0 0 0 0 0

Total # of neighbors = 0
Ave neighs/atom = 0
Neighbor list builds = 0
Dangerous builds = 0
Setting up Verlet run ...
  Unit style    : metal
  Current step  : 14
  Time step     : 0.001
Per MPI rank memory allocation (min/avg/max) = 10.88 | 10.88 | 10.88 Mbytes
   Step          Temp          E_pair         E_mol          TotEng         Press          Volume    
        14   300           -21946.82       0             -21829.594      1061.1052      291483.38    
Loop time of 2.79575e-06 on 8 procs for 0 steps with 3024 atoms

40.2% CPU use with 8 MPI tasks x 1 OpenMP threads

MPI task timing breakdown:
Section |  min time  |  avg time  |  max time  |%varavg| %total
---------------------------------------------------------------
Pair    | 0          | 0          | 0          |   0.0 |  0.00
Neigh   | 0          | 0          | 0          |   0.0 |  0.00
Comm    | 0          | 0          | 0          |   0.0 |  0.00
Output  | 0          | 0          | 0          |   0.0 |  0.00
Modify  | 0          | 0          | 0          |   0.0 |  0.00
Other   |            | 2.796e-06  |            |       |100.00

Nlocal:            378 ave         382 max         374 min
Histogram: 2 0 0 2 0 0 2 0 0 2
Nghost:           1062 ave        1066 max        1058 min
Histogram: 2 0 0 2 0 0 2 0 0 2
Neighs:              0 ave           0 max           0 min
Histogram: 8 0 0 0 0 0 0 0 0 0

Total # of neighbors = 0
Ave neighs/atom = 0
Neighbor list builds = 0
Dangerous builds = 0
Setting up Verlet run ...
  Unit style    : metal
  Current step  : 0
  Time step     : 0.001
Per MPI rank memory allocation (min/avg/max) = 13.66 | 13.66 | 13.66 Mbytes
   Step         PotEng         KinEng         TotEng           Lx             Ly             Lz      
         0  -21946.82       117.22603     -21829.594      50.0428        50.0428        116.394      
       100  -21928.852      109.42588     -21819.426      50.048521      50.030589      116.4522     
       200  -21935.523      118.03762     -21817.486      50.04645       50.005109      116.51039    
       300  -21929.094      111.19292     -21817.901      50.068544      49.994277      116.56859    
       400  -21933.378      120.28565     -21813.092      50.072685      49.970246      116.62679    
       500  -21928.476      121.91544     -21806.56       50.095345      49.958675      116.68499    
       600  -21927.713      125.01669     -21802.697      50.100847      49.947447      116.74318    
       700  -21917.291      119.03667     -21798.255      50.103247      49.9529        116.80138    
       800  -21907.619      115.20001     -21792.419      50.102705      49.972765      116.85958    
       900  -21901.664      113.91688     -21787.747      50.07644       49.985452      116.91777    
      1000  -21908.899      124.62499     -21784.274      50.06293       50.005744      116.97597    
      1100  -21911.162      120.95992     -21790.202      50.036259      50.015871      117.03417    
      1200  -21910.031      116.19323     -21793.838      50.022931      50.030151      117.09236    
      1300  -21908.286      114.96647     -21793.32       50.008935      50.039884      117.15056    
      1400  -21902.606      114.077       -21788.529      49.996255      50.048681      117.20876    
      1500  -21901.408      118.37276     -21783.036      49.994073      50.060621      117.26695    
      1600  -21901.378      118.48704     -21782.891      49.984416      50.054982      117.32515    
      1700  -21897.826      114.66196     -21783.164      49.989073      50.055274      117.38335    
      1800  -21897.791      119.52864     -21778.263      49.992729      50.049774      117.44155    
      1900  -21899.648      121.35867     -21778.289      49.993623      50.038033      117.49974    
      2000  -21899.131      117.07554     -21782.055      50.004103      50.034878      117.55794    
      2100  -21900.962      118.22298     -21782.739      50.004352      50.024278      117.61614    
      2200  -21899.744      115.86756     -21783.876      50.01387       50.022291      117.67433    
      2300  -21904.072      118.71214     -21785.36       50.013079      50.01521       117.73253    
      2400  -21902.181      114.06648     -21788.114      50.015234      50.013099      117.79073    
      2500  -21901.627      115.63629     -21785.991      50.014164      50.01114       117.84893    
      2600  -21898.089      114.67332     -21783.415      50.011976      50.009733      117.90712    
      2700  -21896.141      117.10663     -21779.034      50.013931      50.011464      117.96532    
      2800  -21889.068      113.68682     -21775.381      50.008312      50.008247      118.02352    
      2900  -21893.135      122.21481     -21770.92       50.006835      50.010158      118.08171    
      3000  -21894.829      120.47185     -21774.357      50.002442      50.008951      118.13991    
      3100  -21897.146      118.927       -21778.219      50.000827      50.00921       118.19811    
      3200  -21898.424      117.58098     -21780.843      49.994333      50.006081      118.2563     
      3300  -21894.245      113.33657     -21780.908      49.991968      50.006933      118.3145     
      3400  -21891.537      116.4968      -21775.04       49.988844      50.007339      118.3727     
      3500  -21886.458      115.85899     -21770.599      49.983794      50.008037      118.43089    
      3600  -21888.111      121.65537     -21766.456      49.981595      50.011345      118.48909    
      3700  -21882.941      116.63904     -21766.302      49.977996      50.012366      118.54729    
      3800  -21885.396      117.60586     -21767.791      49.97513       50.01261       118.60549    
      3900  -21886.125      116.96025     -21769.164      49.973081      50.011112      118.66368    
      4000  -21882.889      113.93782     -21768.951      49.972193      50.009366      118.72188    
      4100  -21879.282      116.94562     -21762.336      49.971836      50.008538      118.78008    
      4200  -21877.932      118.71708     -21759.215      49.967675      50.006236      118.83827    
      4300  -21879.932      120.98475     -21758.947      49.965959      50.004932      118.89647    
      4400  -21877.418      116.04282     -21761.375      49.963499      50.003557      118.95467    
      4500  -21873.641      113.53262     -21760.108      49.957708      50.001512      119.01287    
      4600  -21873.049      117.16302     -21755.886      49.954297      50.002459      119.07106    
      4700  -21872.721      119.10033     -21753.621      49.949505      50.004258      119.12926    
      4800  -21869.839      117.43302     -21752.406      49.943382      50.004652      119.18746    
      4900  -21869.739      116.27585     -21753.463      49.938964      50.006075      119.24565    
      5000  -21871.154      115.18238     -21755.972      49.935437      50.007109      119.30385    
      5100  -21868.116      115.12284     -21752.993      49.933021      50.007389      119.36205    
      5200  -21866.247      117.97877     -21748.269      49.929822      50.006283      119.42024    
      5300  -21862.821      116.02549     -21746.796      49.926712      50.005689      119.47844    
      5400  -21862.784      117.05736     -21745.727      49.923563      50.005012      119.53664    
      5500  -21858.299      116.35236     -21741.947      49.919365      50.002882      119.59484    
      5600  -21855.905      118.90429     -21737.001      49.917167      50.00325       119.65303    
      5700  -21853.823      117.69203     -21736.13       49.9123        50.002562      119.71123    
      5800  -21853.911      115.62723     -21738.284      49.907792      50.003163      119.76943    
      5900  -21852.761      115.00459     -21737.757      49.902811      50.003731      119.82762    
      6000  -21852.316      118.02755     -21734.288      49.897596      50.005178      119.88582    
      6100  -21852.566      121.46665     -21731.099      49.893285      50.004924      119.94402    
      6200  -21849.693      118.16322     -21731.53       49.886346      50.002784      120.00221    
      6300  -21847.142      113.79091     -21733.351      49.882482      50.003293      120.06041    
      6400  -21843.334      113.66312     -21729.67       49.877578      50.002573      120.11861    
      6500  -21839.647      114.93103     -21724.716      49.872819      50.001543      120.17681    
      6600  -21839.698      119.72511     -21719.972      49.86925       50.000887      120.235      
      6700  -21836.44       118.75775     -21717.682      49.86552       50.000049      120.2932     
      6800  -21836.325      118.64462     -21717.681      49.862523      49.999089      120.3514     
      6900  -21835.861      115.98702     -21719.874      49.859977      49.997978      120.40959    
      7000  -21832.956      115.26222     -21717.694      49.855235      49.995334      120.46779    
      7100  -21830.012      115.73713     -21714.275      49.852787      49.994825      120.52599    
      7200  -21827.867      118.39897     -21709.468      49.847887      49.991939      120.58418    
      7300  -21826.885      120.61658     -21706.268      49.84534       49.990419      120.64238    
      7400  -21828.718      119.05912     -21709.659      49.841972      49.988532      120.70058    
      7500  -21829.595      119.18614     -21710.409      49.837604      49.985584      120.75877    
      7600  -21825.108      114.60908     -21710.499      49.834906      49.983936      120.81697    
      7700  -21824.234      116.32664     -21707.907      49.829932      49.980285      120.87517    
      7800  -21818.957      116.85417     -21702.103      49.828008      49.978769      120.93337    
      7900  -21815.684      118.40681     -21697.277      49.82493       49.97616       120.99156    
      8000  -21812.397      117.30223     -21695.095      49.822263      49.973548      121.04976    
      8100  -21808.539      115.36124     -21693.177      49.819287      49.970034      121.10796    
      8200  -21808.909      117.17377     -21691.736      49.816042      49.96698       121.16615    
      8300  -21809.794      116.49202     -21693.302      49.813016      49.965141      121.22435    
      8400  -21806.812      114.20734     -21692.604      49.807653      49.961989      121.28255    
      8500  -21800.647      112.83268     -21687.814      49.803371      49.961171      121.34074    
      8600  -21799.678      117.15466     -21682.524      49.796289      49.960145      121.39894    
      8700  -21798.527      117.59388     -21680.933      49.788799      49.959835      121.45714    
      8800  -21796.664      115.83682     -21680.827      49.782876      49.960127      121.51534    
      8900  -21795.099      115.77576     -21679.323      49.775691      49.957467      121.57353    
      9000  -21792.049      119.41052     -21672.638      49.77139       49.956468      121.63173    
      9100  -21789.37       121.28629     -21668.084      49.765729      49.953935      121.68993    
      9200  -21786.829      119.59176     -21667.238      49.76048       49.951456      121.74812    
      9300  -21781.981      114.18978     -21667.791      49.756227      49.949645      121.80632    
      9400  -21780.349      116.01762     -21664.331      49.75117       49.945939      121.86452    
      9500  -21776.312      115.67896     -21660.633      49.74831       49.943535      121.92272    
      9600  -21775.127      117.2614      -21657.866      49.744567      49.938916      121.98091    
      9700  -21773.298      117.58916     -21655.708      49.741415      49.933749      122.03911    
      9800  -21769.765      116.71782     -21653.047      49.73883       49.929119      122.09731    
      9900  -21764.347      113.72037     -21650.627      49.734439      49.923871      122.1555     
     10000  -21766.857      119.27762     -21647.579      49.730542      49.919623      122.2137     
     10100  -21761.87       116.78655     -21645.083      49.725928      49.915546      122.2719     
     10200  -21762.473      118.94123     -21643.531      49.721038      49.911467      122.33009    
     10300  -21757.524      114.81057     -21642.713      49.717613      49.908427      122.38829    
     10400  -21757.327      117.59996     -21639.727      49.71196       49.902691      122.44649    
     10500  -21751.277      116.02033     -21635.256      49.710577      49.897876      122.50468    
     10600  -21749.973      119.09985     -21630.873      49.708382      49.890648      122.56288    
     10700  -21747.252      115.40212     -21631.85       49.705798      49.882756      122.62108    
     10800  -21744.692      113.10865     -21631.584      49.702688      49.875391      122.67928    
     10900  -21744.73       117.97298     -21626.757      49.698127      49.868337      122.73747    
     11000  -21740.162      117.21131     -21622.95       49.693546      49.862309      122.79567    
     11100  -21736.09       115.37526     -21620.715      49.688382      49.855994      122.85387    
     11200  -21733.102      113.47461     -21619.627      49.685204      49.851298      122.91206    
     11300  -21733.496      117.457       -21616.039      49.6794        49.845807      122.97026    
     11400  -21732.417      120.9838      -21611.433      49.67367       49.841251      123.02846    
     11500  -21725.664      117.24073     -21608.423      49.666535      49.83739       123.08666    
     11600  -21727.034      118.98163     -21608.053      49.658033      49.833278      123.14485    
     11700  -21722.827      114.82859     -21607.998      49.651524      49.830499      123.20305    
     11800  -21718.941      115.1696      -21603.771      49.643328      49.82545       123.26125    
     11900  -21712.867      115.87692     -21596.991      49.636997      49.821289      123.31944    
     12000  -21709.101      117.24687     -21591.854      49.629691      49.815754      123.37764    
     12100  -21707.736      118.39058     -21589.345      49.621611      49.811104      123.43584    
     12200  -21706.043      117.09201     -21588.951      49.614036      49.807775      123.49403    
     12300  -21703.429      115.20217     -21588.227      49.605189      49.803438      123.55223    
     12400  -21697.333      114.6297      -21582.703      49.597282      49.798111      123.61043    
     12500  -21695.711      117.95945     -21577.751      49.588925      49.792276      123.66863    
     12600  -21690.147      115.90435     -21574.242      49.581078      49.786499      123.72682    
     12700  -21687.829      116.90215     -21570.927      49.573468      49.780341      123.78502    
     12800  -21689.186      117.9483      -21571.238      49.567059      49.773963      123.84322    
     12900  -21685.6        115.47454     -21570.126      49.558876      49.766313      123.90141    
     13000  -21683.495      118.25646     -21565.239      49.551919      49.759618      123.95961    
     13100  -21674.739      116.11934     -21558.62       49.544308      49.751008      124.01781    
     13200  -21672.677      118.14272     -21554.534      49.538323      49.741813      124.076      
     13300  -21672.134      120.5265      -21551.607      49.532212      49.732202      124.1342     
     13400  -21667.2        116.42664     -21550.774      49.525007      49.722706      124.1924     
     13500  -21663.738      113.76514     -21549.973      49.517232      49.715352      124.2506     
     13600  -21660.362      116.21129     -21544.151      49.505895      49.707732      124.30879    
     13700  -21654.635      118.24503     -21536.39       49.496477      49.702885      124.36699    
     13800  -21651.72       117.91844     -21533.801      49.484161      49.696893      124.42519    
     13900  -21652.32       118.17023     -21534.15       49.471143      49.691094      124.48338    
     14000  -21646.723      114.03192     -21532.691      49.459251      49.686069      124.54158    
     14100  -21643.325      116.08326     -21527.242      49.445087      49.679387      124.59978    
     14200  -21640.889      119.79283     -21521.096      49.433899      49.674734      124.65797    
     14300  -21635.163      118.0684      -21517.095      49.420419      49.666967      124.71617    
     14400  -21630.241      116.8114      -21513.429      49.408799      49.659224      124.77437    
     14500  -21626.828      117.52708     -21509.301      49.396934      49.650212      124.83257    
     14600  -21623.648      117.39624     -21506.252      49.385198      49.641021      124.89076    
     14700  -21620.779      114.86596     -21505.913      49.373476      49.631184      124.94896    
     14800  -21620.738      116.75919     -21503.978      49.36167       49.620704      125.00716    
     14900  -21615.912      117.80133     -21498.111      49.350214      49.60951       125.06535    
     15000  -21610.725      118.80241     -21491.922      49.340158      49.598391      125.12355    
     15100  -21604.338      116.16444     -21488.173      49.328777      49.586065      125.18175    
     15200  -21604.605      117.98546     -21486.62       49.317278      49.573738      125.23994    
     15300  -21602.82       115.24782     -21487.572      49.305314      49.56141       125.29814    
     15400  -21599.455      116.49599     -21482.959      49.29142       49.548858      125.35634    
     15500  -21591.961      116.44795     -21475.513      49.277465      49.537596      125.41454    
     15600  -21588.069      117.824       -21470.245      49.262344      49.525806      125.47273    
     15700  -21583.618      116.98085     -21466.637      49.247132      49.514812      125.53093    
     15800  -21581.557      118.59842     -21462.958      49.230183      49.503176      125.58913    
     15900  -21573.385      115.76256     -21457.622      49.214234      49.492839      125.64732    
     16000  -21571.805      119.79251     -21452.012      49.195957      49.482015      125.70552    
     16100  -21568.033      118.13277     -21449.9        49.178101      49.471876      125.76372    
     16200  -21567.277      117.36998     -21449.907      49.160433      49.461219      125.82191    
     16300  -21561.861      114.81453     -21447.046      49.141719      49.449687      125.88011    
     16400  -21556.991      115.83182     -21441.159      49.123496      49.437715      125.93831    
     16500  -21552.77       117.83159     -21434.938      49.104919      49.424528      125.9965     
     16600  -21551.339      120.77886     -21430.56       49.086963      49.410574      126.0547     
     16700  -21542.352      115.61472     -21426.737      49.068697      49.395382      126.1129     
     16800  -21539.961      118.09685     -21421.864      49.051502      49.380812      126.1711     
     16900  -21533.254      117.44728     -21415.806      49.032733      49.365492      126.22929    
     17000  -21531.499      119.13543     -21412.364      49.013268      49.350172      126.28749    
     17100  -21531.689      119.29921     -21412.39       48.993785      49.335057      126.34569    
     17200  -21527.061      116.69604     -21410.365      48.974767      49.320312      126.40388    
     17300  -21522.252      116.67134     -21405.581      48.954342      49.303997      126.46208    
     17400  -21517.454      118.9493      -21398.505      48.93556       49.287616      126.52028    
     17500  -21511.992      119.88144     -21392.111      48.91663       49.270611      126.57847    
     17600  -21508.038      117.97994     -21390.058      48.896426      49.252709      126.63667    
     17700  -21507.731      117.83925     -21389.891      48.876417      49.235193      126.69487    
     17800  -21504.531      117.45153     -21387.079      48.855908      49.217283      126.75307    
     17900  -21496.582      114.89343     -21381.688      48.835304      49.200765      126.81126    
     18000  -21491.252      117.16895     -21374.083      48.812103      49.182918      126.86946    
     18100  -21486.52       118.03653     -21368.483      48.790917      49.166316      126.92766    
     18200  -21482.099      117.04508     -21365.054      48.767966      49.148985      126.98585    
     18300  -21481.226      114.75556     -21366.47       48.744071      49.13228       127.04405    
     18400  -21478.679      115.24908     -21363.43       48.720689      49.11722       127.10225    
     18500  -21474.768      117.10748     -21357.66       48.69528       49.10083       127.16045    
     18600  -21466.411      116.50181     -21349.909      48.672044      49.085134      127.21864    
     18700  -21461.496      117.24506     -21344.251      48.647526      49.067675      127.27684    
     18800  -21457.77       117.19259     -21340.578      48.62311       49.04973       127.33504    
     18900  -21454.022      116.9725      -21337.049      48.600954      49.033177      127.39323    
     19000  -21448.788      113.3394      -21335.449      48.575714      49.014587      127.45143    
     19100  -21449.482      114.1732      -21335.309      48.553056      48.997019      127.50963    
     19200  -21443.809      115.61591     -21328.193      48.529459      48.978666      127.56782    
     19300  -21437.495      116.90991     -21320.586      48.505043      48.960442      127.62602    
     19400  -21431.879      117.94309     -21313.936      48.482176      48.943253      127.68422    
     19500  -21425.079      116.80868     -21308.271      48.458014      48.925519      127.74242    
     19600  -21422.373      118.7898      -21303.583      48.43443       48.908378      127.80061    
     19700  -21416.883      115.41402     -21301.469      48.411625      48.891131      127.85881    
     19800  -21415.185      114.4493      -21300.735      48.388859      48.873085      127.91701    
     19900  -21410.842      114.92159     -21295.921      48.367408      48.855918      127.9752     
     20000  -21407.471      119.5024      -21287.968      48.345064      48.83821       128.0334     
     20100  -21400.703      117.73767     -21282.965      48.323774      48.820495      128.0916     
     20200  -21397.328      117.92344     -21279.405      48.302057      48.801948      128.14979    
     20300  -21393.191      117.96874     -21275.223      48.281785      48.78421       128.20799    
     20400  -21389.476      117.38759     -21272.088      48.260493      48.766666      128.26619    
     20500  -21386.326      116.31082     -21270.015      48.238425      48.748953      128.32439    
     20600  -21381.722      116.70486     -21265.017      48.21794       48.733189      128.38258    
     20700  -21372.51       116.03918     -21256.471      48.195467      48.716568      128.44078    
     20800  -21367.696      118.24441     -21249.451      48.175069      48.701113      128.49898    
     20900  -21362.473      117.82783     -21244.645      48.155107      48.686195      128.55717    
     21000  -21358.51       116.63365     -21241.877      48.133906      48.670825      128.61537    
     21100  -21355.423      114.38781     -21241.035      48.113607      48.657627      128.67357    
     21200  -21351.971      114.75091     -21237.22       48.092577      48.644262      128.73176    
     21300  -21345.306      118.28758     -21227.018      48.071904      48.630979      128.78996    
     21400  -21340.555      118.90547     -21221.65       48.051149      48.617246      128.84816    
     21500  -21335.726      116.52124     -21219.204      48.030784      48.602971      128.90636    
     21600  -21331.634      114.83026     -21216.803      48.01331       48.589571      128.96455    
     21700  -21326.452      115.73391     -21210.718      47.995831      48.575542      129.02275    
     21800  -21319.479      117.56373     -21201.916      47.979185      48.56305       129.08095    
     21900  -21313.364      117.15687     -21196.207      47.961385      48.549926      129.13914    
     22000  -21309.92       117.45647     -21192.463      47.946012      48.537897      129.19734    
     22100  -21305.773      117.35079     -21188.422      47.928439      48.523746      129.25554    
     22200  -21302.203      117.06253     -21185.141      47.912066      48.510891      129.31373    
     22300  -21300.265      115.55896     -21184.706      47.897732      48.498648      129.37193    
     22400  -21293.029      113.60388     -21179.426      47.882701      48.485539      129.43013    
     22500  -21288.174      117.15834     -21171.016      47.86893       48.473351      129.48833    
     22600  -21283.263      118.25199     -21165.011      47.854649      48.461575      129.54652    
     22700  -21275.291      115.34906     -21159.942      47.839934      48.450282      129.60472    
     22800  -21272.041      118.01253     -21154.029      47.825396      48.439938      129.66292    
     22900  -21265.602      118.15189     -21147.45       47.811352      48.430771      129.72111    
     23000  -21260.522      119.59772     -21140.925      47.79656       48.421985      129.77931    
     23100  -21258.017      119.32133     -21138.695      47.782823      48.414378      129.83751    
     23200  -21252.224      115.44176     -21136.783      47.768316      48.405808      129.8957     
     23300  -21246.855      115.88095     -21130.974      47.755017      48.398077      129.9539     
     23400  -21240.486      117.64123     -21122.845      47.741066      48.388964      130.0121     
     23500  -21237.288      119.5517      -21117.736      47.728529      48.380223      130.07029    
     23600  -21233.2        119.00164     -21114.198      47.716206      48.371138      130.12849    
     23700  -21228.429      118.24886     -21110.18       47.704802      48.362208      130.18669    
     23800  -21220.861      116.12706     -21104.734      47.693662      48.353503      130.24489    
     23900  -21214.724      118.28999     -21096.434      47.682654      48.344621      130.30308    
     24000  -21205.633      117.93467     -21087.699      47.673166      48.336299      130.36128    
     24100  -21202.819      119.28366     -21083.535      47.662811      48.326444      130.41948    
     24200  -21200.162      116.72814     -21083.434      47.654748      48.31768       130.47767    
     24300  -21198.383      118.9953      -21079.388      47.646626      48.308609      130.53587    
     24400  -21191.602      117.07277     -21074.53       47.63802       48.298848      130.59407    
     24500  -21185.806      117.2432      -21068.563      47.631188      48.289914      130.65226    
     24600  -21180.584      118.54633     -21062.038      47.622748      48.280513      130.71046    
     24700  -21172.219      117.01074     -21055.208      47.613469      48.272415      130.76866    
     24800  -21166.724      119.3059      -21047.418      47.604464      48.266498      130.82686    
     24900  -21162.601      119.01442     -21043.587      47.594292      48.260829      130.88505    
     25000  -21160.518      117.3995      -21043.118      47.584254      48.256139      130.94325    
     25100  -21154.645      115.64466     -21039          47.574348      48.251269      131.00145    
     25200  -21147.334      115.3111      -21032.023      47.565834      48.246166      131.05964    
     25300  -21139.691      115.99463     -21023.696      47.557098      48.23978       131.11784    
     25400  -21138.263      119.35583     -21018.907      47.549213      48.233589      131.17604    
     25500  -21133.01       116.95459     -21016.055      47.540631      48.22729       131.23424    
     25600  -21129.418      118.48239     -21010.936      47.531991      48.221861      131.29243    
     25700  -21122.464      117.4732      -21004.991      47.523716      48.217015      131.35063    
     25800  -21115.678      117.01865     -20998.659      47.514721      48.211229      131.40883    
     25900  -21106.918      116.97376     -20989.944      47.507374      48.206736      131.46702    
     26000  -21102.221      119.40054     -20982.82       47.499457      48.20109       131.52522    
     26100  -21099.76       118.44261     -20981.318      47.491953      48.194205      131.58342    
     26200  -21095.055      116.28241     -20978.772      47.4863        48.187953      131.64161    
     26300  -21089.285      115.77276     -20973.512      47.479865      48.180783      131.69981    
     26400  -21087.294      119.53783     -20967.756      47.474307      48.17471       131.75801    
     26500  -21080.683      118.92829     -20961.755      47.467961      48.168854      131.8162     
     26600  -21072.002      117.09809     -20954.904      47.460928      48.163084      131.8744     
     26700  -21066.936      118.40663     -20948.529      47.453834      48.158212      131.9326     
     26800  -21061.236      116.22724     -20945.008      47.446172      48.152889      131.9908     
     26900  -21058.361      115.47898     -20942.882      47.440136      48.147245      132.04899    
     27000  -21052.567      115.01586     -20937.551      47.434328      48.140788      132.10719    
     27100  -21045.709      116.99735     -20928.712      47.42881       48.134552      132.16539    
     27200  -21042.33       120.13722     -20922.193      47.423609      48.129312      132.22358    
     27300  -21032.947      115.15812     -20917.789      47.416872      48.123475      132.28178    
     27400  -21031.424      117.36539     -20914.058      47.410402      48.119344      132.33998    
     27500  -21025.422      115.35921     -20910.063      47.402749      48.115143      132.39818    
     27600  -21019.615      115.98714     -20903.628      47.395271      48.111011      132.45637    
     27700  -21011.781      117.93117     -20893.85       47.388676      48.107048      132.51457    
     27800  -21007.604      120.51726     -20887.087      47.382011      48.101625      132.57277    
     27900  -21000.53       116.75359     -20883.776      47.376534      48.096312      132.63096    
     28000  -20998.582      117.8345      -20880.748      47.370104      48.090161      132.68916    
     28100  -20990.022      114.98801     -20875.034      47.364008      48.083969      132.74736    
     28200  -20983.782      116.16661     -20867.616      47.358844      48.078436      132.80555    
     28300  -20975.246      114.40519     -20860.841      47.353048      48.072148      132.86375    
     28400  -20971.876      116.59673     -20855.279      47.348897      48.067096      132.92195    
     28500  -20968.83       118.61672     -20850.213      47.343646      48.06126       132.98014    
     28600  -20963.913      117.28106     -20846.632      47.338265      48.055649      133.03834    
     28700  -20955.652      113.29604     -20842.356      47.332856      48.050922      133.09654    
     28800  -20950.528      116.00791     -20834.52       47.325628      48.044856      133.15474    
     28900  -20943.129      118.11975     -20825.009      47.320123      48.040002      133.21293    
     29000  -20938.923      119.36834     -20819.555      47.314185      48.034682      133.27113    
     29100  -20932.57       116.19874     -20816.372      47.307301      48.028919      133.32933    
     29200  -20927.508      115.41713     -20812.091      47.302621      48.024881      133.38752    
     29300  -20920.713      116.62289     -20804.09       47.295567      48.01929       133.44572    
     29400  -20911.626      117.91294     -20793.713      47.289123      48.015374      133.50392    
     29500  -20904.607      116.08626     -20788.521      47.282702      48.011553      133.56212    
     29600  -20903.571      117.39724     -20786.174      47.275245      48.006178      133.62031    
     29700  -20898.184      115.80307     -20782.381      47.269946      48.002503      133.67851    
     29800  -20892.706      116.65379     -20776.052      47.263116      47.997812      133.73671    
     29900  -20887.45       120.73443     -20766.715      47.256925      47.993757      133.7949     
     30000  -20875.657      117.44885     -20758.208      47.251065      47.989088      133.8531     
     30100  -20873.452      119.90755     -20753.544      47.244486      47.983125      133.9113     
     30200  -20867.857      117.34439     -20750.513      47.239343      47.978112      133.96949    
     30300  -20863.797      116.7476      -20747.05       47.232552      47.971462      134.02769    
     30400  -20857.862      115.47902     -20742.383      47.227412      47.965811      134.08589    
     30500  -20851.051      117.32758     -20733.723      47.221623      47.959411      134.14409    
     30600  -20845.171      120.64516     -20724.525      47.21664       47.953631      134.20228    
     30700  -20837.118      117.47395     -20719.644      47.211564      47.948113      134.26048    
     30800  -20831.584      115.60822     -20715.976      47.205175      47.942633      134.31868    
     30900  -20831.599      120.1129      -20711.486      47.199528      47.937975      134.37687    
     31000  -20821.951      117.07813     -20704.873      47.192971      47.93285       134.43507    
     31100  -20815.434      119.00124     -20696.433      47.186361      47.927701      134.49327    
     31200  -20809.474      120.14769     -20689.326      47.179815      47.922589      134.55146    
     31300  -20804.432      118.76557     -20685.666      47.173907      47.917765      134.60966    
     31400  -20798.606      115.71808     -20682.888      47.167136      47.911846      134.66786    
     31500  -20791.847      114.3997      -20677.448      47.161694      47.906351      134.72606    
     31600  -20787.67       118.37592     -20669.294      47.155019      47.900043      134.78425    
     31700  -20780.857      119.75165     -20661.105      47.148837      47.894238      134.84245    
     31800  -20772.078      116.81032     -20655.267      47.142945      47.889071      134.90065    
     31900  -20766.108      117.12838     -20648.98       47.135627      47.88333       134.95884    
     32000  -20760.348      117.41582     -20642.932      47.130559      47.879397      135.01704    
     32100  -20752.592      115.79209     -20636.8        47.123578      47.873423      135.07524    
     32200  -20746.955      116.57528     -20630.379      47.117562      47.868068      135.13343    
     32300  -20740.732      115.19173     -20625.54       47.111072      47.862212      135.19163    
     32400  -20737.942      115.23232     -20622.71       47.104476      47.856279      135.24983    
     32500  -20732.163      114.31245     -20617.85       47.098194      47.850222      135.30802    
     32600  -20724.021      115.949       -20608.072      47.091323      47.843228      135.36622    
     32700  -20714.941      115.63859     -20599.303      47.08566       47.837124      135.42442    
     32800  -20711.185      117.07833     -20594.106      47.079602      47.830597      135.48262    
     32900  -20705.602      115.37785     -20590.224      47.073389      47.823686      135.54081    
     33000  -20700.131      114.51448     -20585.617      47.067255      47.817207      135.59901    
     33100  -20692.103      114.21748     -20577.885      47.060861      47.811615      135.65721    
     33200  -20684.458      117.11959     -20567.338      47.053456      47.80621       135.7154     
     33300  -20679.143      118.19832     -20560.945      47.045788      47.801618      135.7736     
     33400  -20673.66       116.42381     -20557.236      47.038089      47.797194      135.8318     
     33500  -20668.829      114.71846     -20554.111      47.030373      47.792556      135.88999    
     33600  -20666.152      117.40102     -20548.751      47.023143      47.787509      135.94819    
     33700  -20656.458      115.10821     -20541.35       47.015931      47.781623      136.00639    
     33800  -20649.797      115.85295     -20533.944      47.009331      47.775943      136.06459    
     33900  -20644.518      117.30281     -20527.215      47.002357      47.769419      136.12278    
     34000  -20639.855      119.36241     -20520.493      46.995387      47.762378      136.18098    
     34100  -20629.606      117.75227     -20511.854      46.988705      47.755487      136.23918    
     34200  -20624.627      121.99109     -20502.636      46.981278      47.748566      136.29737    
     34300  -20616.878      119.33622     -20497.542      46.974466      47.742325      136.35557    
     34400  -20612.763      116.1208      -20496.643      46.967615      47.735753      136.41377    
     34500  -20605.892      115.26405     -20490.628      46.959695      47.729229      136.47197    
     34600  -20598.878      116.25342     -20482.625      46.952218      47.723422      136.53016    
     34700  -20593.242      118.94865     -20474.293      46.943934      47.717586      136.58836    
     34800  -20582.899      116.05183     -20466.847      46.935513      47.711924      136.64656    
     34900  -20579.831      118.31476     -20461.516      46.927623      47.706576      136.70475    
     35000  -20576.7        117.32786     -20459.372      46.919976      47.700652      136.76295    
     35100  -20570.18       115.92807     -20454.252      46.913003      47.694584      136.82115    
     35200  -20562.977      117.45952     -20445.518      46.906139      47.688066      136.87934    
     35300  -20553.645      117.65896     -20435.986      46.898425      47.681194      136.93754    
     35400  -20550.831      120.77189     -20430.059      46.89034       47.674632      136.99574    
     35500  -20542.305      116.65307     -20425.651      46.882296      47.668087      137.05394    
     35600  -20534.79       114.4258      -20420.364      46.87411       47.661153      137.11213    
     35700  -20531.921      118.63363     -20413.288      46.865915      47.654112      137.17033    
     35800  -20521.14       119.16044     -20401.979      46.858021      47.647625      137.22853    
     35900  -20517.189      121.02527     -20396.163      46.84995       47.641111      137.28672    
     36000  -20509.984      116.2805      -20393.704      46.841965      47.634138      137.34492    
     36100  -20506.773      117.81209     -20388.961      46.834659      47.627074      137.40312    
     36200  -20496.269      113.816       -20382.453      46.827557      47.619295      137.46131    
     36300  -20492.682      118.62693     -20374.056      46.820886      47.611392      137.51951    
     36400  -20482.822      119.24671     -20363.575      46.813783      47.602572      137.57771    
     36500  -20478.537      121.24783     -20357.289      46.806296      47.59405       137.63591    
     36600  -20472.594      118.54485     -20354.049      46.799055      47.586667      137.6941     
     36700  -20465.694      117.06647     -20348.628      46.790579      47.579288      137.7523     
     36800  -20461.125      118.15427     -20342.97       46.781478      47.572796      137.8105     
     36900  -20455.481      117.59698     -20337.884      46.772661      47.566622      137.86869    
     37000  -20448.368      115.12181     -20333.247      46.763049      47.559455      137.92689    
     37100  -20442.481      117.42057     -20325.061      46.754384      47.552337      137.98509    
     37200  -20434.023      119.099       -20314.924      46.746294      47.544803      138.04328    
     37300  -20428.877      120.64826     -20308.229      46.737502      47.536693      138.10148    
     37400  -20424.224      119.24973     -20304.974      46.72974       47.529055      138.15968    
     37500  -20416.375      116.84636     -20299.529      46.720891      47.520437      138.21787    
     37600  -20408.482      116.751       -20291.731      46.713179      47.513012      138.27607    
     37700  -20401.036      118.12842     -20282.908      46.704396      47.505676      138.33427    
     37800  -20392.042      116.5934      -20275.449      46.694316      47.498329      138.39247    
     37900  -20387.472      117.68767     -20269.784      46.684821      47.491998      138.45066    
     38000  -20383.69       114.49706     -20269.193      46.674442      47.484673      138.50886    
     38100  -20377.376      114.67066     -20262.705      46.665344      47.476527      138.56706    
     38200  -20370.114      116.47735     -20253.636      46.657576      47.46814       138.62525    
     38300  -20362.091      117.13897     -20244.952      46.649065      47.458726      138.68345    
     38400  -20353.695      116.13012     -20237.565      46.641605      47.450334      138.74165    
     38500  -20346.198      115.78782     -20230.41       46.632656      47.441081      138.79985    
     38600  -20342.26       119.58788     -20222.672      46.623166      47.431951      138.85804    
     38700  -20334.536      117.62789     -20216.908      46.614671      47.424225      138.91624    
     38800  -20330.44       117.71572     -20212.724      46.603273      47.415174      138.97444    
     38900  -20323.763      115.47293     -20208.29       46.593499      47.408513      139.03263    
     39000  -20316.709      115.96852     -20200.741      46.58241       47.40054       139.09083    
     39100  -20308.559      119.41337     -20189.145      46.571793      47.392667      139.14903    
     39200  -20301.917      119.73299     -20182.184      46.563208      47.385671      139.20722    
     39300  -20294.247      115.89954     -20178.347      46.552923      47.376551      139.26542    
     39400  -20292.96       118.74984     -20174.211      46.543964      47.367787      139.32362    
     39500  -20282.318      114.63199     -20167.686      46.535284      47.358815      139.38182    
     39600  -20278.696      119.77387     -20158.923      46.525879      47.349616      139.44001    
     39700  -20268.811      118.34369     -20150.467      46.516734      47.340749      139.49821    
     39800  -20259.936      115.90522     -20144.031      46.50688       47.332205      139.55641    
     39900  -20256.479      117.65117     -20138.828      46.496718      47.323943      139.6146     
     40000  -20252.196      117.75575     -20134.44       46.485121      47.314473      139.6728     
     40100  -20245.363      116.16922     -20129.194      46.475366      47.305839      139.731      
     40200  -20235.282      115.33668     -20119.945      46.466193      47.29622       139.78919    
     40300  -20230.046      120.27332     -20109.773      46.456254      47.285474      139.84739    
     40400  -20220.461      116.42986     -20104.031      46.447946      47.276207      139.90559    
     40500  -20218.065      117.381       -20100.684      46.437905      47.266009      139.96379    
     40600  -20211.995      116.59424     -20095.401      46.428078      47.256902      140.02198    
     40700  -20204.669      116.95447     -20087.715      46.417986      47.248462      140.08018    
     40800  -20196.258      116.31511     -20079.943      46.406682      47.238802      140.13838    
     40900  -20190.429      118.10937     -20072.32       46.39727       47.229979      140.19657    
     41000  -20180.608      114.72307     -20065.885      46.387303      47.220097      140.25477    
     41100  -20177.12       117.71345     -20059.406      46.376565      47.209075      140.31297    
     41200  -20168.378      115.19208     -20053.186      46.368227      47.20004       140.37116    
     41300  -20167.098      119.92304     -20047.175      46.358102      47.190198      140.42936    
     41400  -20156.515      113.79162     -20042.723      46.347174      47.180724      140.48756    
     41500  -20155.189      115.94161     -20039.247      46.33648       47.172377      140.54575    
     41600  -20143.772      112.72222     -20031.049      46.323788      47.16251       140.60395    
     41700  -20138.695      118.70343     -20019.992      46.312574      47.153623      140.66215    
     41800  -20130.206      117.81898     -20012.387      46.301824      47.144233      140.72035    
     41900  -20125.327      119.24549     -20006.082      46.291081      47.133665      140.77854    
     42000  -20117.606      116.52837     -20001.077      46.281798      47.124182      140.83674    
     42100  -20112.986      116.26134     -19996.725      46.271007      47.113804      140.89494    
     42200  -20104.812      115.65842     -19989.154      46.260648      47.103564      140.95313    
     42300  -20095.793      117.92488     -19977.869      46.250449      47.093715      141.01133    
     42400  -20089.371      118.70469     -19970.667      46.239041      47.083561      141.06953    
     42500  -20081.25       115.46392     -19965.786      46.228098      47.074776      141.12772    
     42600  -20080.8        118.88129     -19961.919      46.216371      47.065934      141.18592    
     42700  -20070.055      112.70088     -19957.355      46.204196      47.056499      141.24412    
     42800  -20067.739      119.01706     -19948.722      46.192664      47.047078      141.30232    
     42900  -20056.414      118.77415     -19937.639      46.181475      47.037217      141.36051    
     43000  -20048.146      118.74791     -19929.398      46.170354      47.026732      141.41871    
     43100  -20041.725      118.54175     -19923.184      46.159782      47.016676      141.47691    
     43200  -20035.965      116.01809     -19919.947      46.149335      47.006612      141.5351     
     43300  -20029.055      114.7031      -19914.352      46.138227      46.996133      141.5933     
     43400  -20024.522      118.47813     -19906.044      46.127792      46.986757      141.6515     
     43500  -20010.241      116.03771     -19894.203      46.115926      46.976514      141.7097     
     43600  -20005.894      119.57426     -19886.319      46.103967      46.966738      141.76789    
     43700  -20002.798      120.35636     -19882.442      46.092646      46.956869      141.82609    
     43800  -19996.061      117.13923     -19878.921      46.080778      46.94594       141.88429    
     43900  -19989.308      115.83683     -19873.471      46.070687      46.935892      141.94248    
     44000  -19983.337      117.33398     -19866.003      46.0594        46.924736      142.00068    
     44100  -19972.115      117.53334     -19854.581      46.048522      46.914097      142.05888    
     44200  -19964.359      118.00371     -19846.356      46.037735      46.904395      142.11707    
     44300  -19960.465      119.30767     -19841.157      46.024816      46.893822      142.17527    
     44400  -19953.485      117.1288      -19836.356      46.013681      46.885123      142.23347    
     44500  -19944.502      113.90303     -19830.599      46.001467      46.875658      142.29167    
     44600  -19939.874      117.75627     -19822.117      45.989162      46.865784      142.34986    
     44700  -19932.32       120.82373     -19811.496      45.979088      46.857302      142.40806    
     44800  -19924.543      118.94585     -19805.597      45.966791      46.846472      142.46626    
     44900  -19919.128      116.78984     -19802.338      45.955787      46.836465      142.52445    
     45000  -19914.519      117.59182     -19796.927      45.945129      46.826646      142.58265    
     45100  -19905.306      115.23007     -19790.076      45.932471      46.815372      142.64085    
     45200  -19898.971      118.30063     -19780.67       45.922073      46.806222      142.69904    
     45300  -19886.716      117.57445     -19769.141      45.910336      46.795583      142.75724    
     45400  -19886.774      123.2841      -19763.49       45.898803      46.784978      142.81544    
     45500  -19877.219      117.33513     -19759.884      45.889383      46.775461      142.87364    
     45600  -19872.005      116.82159     -19755.183      45.877877      46.764071      142.93183    
     45700  -19864.258      115.95368     -19748.304      45.866991      46.754636      142.99003    
     45800  -19856.989      117.5432      -19739.446      45.855257      46.745582      143.04823    
     45900  -19849.18       120.27652     -19728.903      45.842695      46.7357        143.10642    
     46000  -19842.367      120.10258     -19722.264      45.831921      46.727121      143.16462    
     46100  -19837.564      117.24161     -19720.322      45.819958      46.717273      143.22282    
     46200  -19828.758      114.2845      -19714.474      45.80891       46.707987      143.28101    
     46300  -19823.56       116.33275     -19707.227      45.797189      46.698222      143.33921    
     46400  -19814.268      116.38679     -19697.881      45.784929      46.688112      143.39741    
     46500  -19807.421      119.22805     -19688.193      45.774047      46.6789        143.4556     
     46600  -19802.129      120.28665     -19681.842      45.76257       46.66864       143.5138     
     46700  -19795.455      115.40703     -19680.048      45.751655      46.65818       143.572      
     46800  -19790.37       117.229       -19673.141      45.741453      46.647779      143.6302     
     46900  -19780.053      115.94711     -19664.106      45.731275      46.63693       143.68839    
     47000  -19769.928      115.63391     -19654.294      45.721331      46.626127      143.74659    
     47100  -19768.616      121.39141     -19647.225      45.711574      46.615829      143.80479    
     47200  -19760.713      114.72919     -19645.984      45.701129      46.605067      143.86298    
     47300  -19755.27       115.58238     -19639.687      45.691032      46.595375      143.92118    
     47400  -19748.538      117.12603     -19631.412      45.680598      46.586393      143.97938    
     47500  -19741.178      118.71545     -19622.462      45.668893      46.577041      144.03758    
     47600  -19734.336      121.68147     -19612.654      45.658218      46.568744      144.09577    
     47700  -19723.632      118.87385     -19604.758      45.647113      46.560171      144.15397    
     47800  -19718.178      115.15792     -19603.02       45.634975      46.550677      144.21217    
     47900  -19712.665      115.21701     -19597.448      45.624313      46.541874      144.27036    
     48000  -19704.177      115.41041     -19588.767      45.612726      46.532005      144.32856    
     48100  -19697.926      118.60415     -19579.322      45.60217       46.523055      144.38676    
     48200  -19689.364      117.81385     -19571.55       45.591981      46.514325      144.44495    
     48300  -19685.487      116.29471     -19569.193      45.581225      46.504845      144.50315    
     48400  -19679.078      115.23764     -19563.84       45.571561      46.495865      144.56135    
     48500  -19671.785      116.79141     -19554.993      45.561517      46.486167      144.61955    
     48600  -19664.369      119.48273     -19544.886      45.551685      46.476199      144.67774    
     48700  -19656.253      118.735       -19537.518      45.541992      46.466275      144.73594    
     48800  -19650.748      119.26089     -19531.487      45.532416      46.456528      144.79414    
     48900  -19640.062      114.6558      -19525.406      45.522735      46.446868      144.85233    
     49000  -19637.339      118.97334     -19518.366      45.512937      46.436929      144.91053    
     49100  -19627.324      115.36471     -19511.959      45.503475      46.427454      144.96873    
     49200  -19624.143      116.91772     -19507.226      45.493571      46.418145      145.02692    
     49300  -19615.313      113.3824      -19501.931      45.483376      46.409376      145.08512    
     49400  -19606.724      115.48203     -19491.242      45.473311      46.401521      145.14332    
     49500  -19600.599      119.07291     -19481.526      45.462254      46.393049      145.20152    
     49600  -19591.535      116.05606     -19475.479      45.452664      46.385144      145.25971    
     49700  -19586.588      115.67906     -19470.909      45.443731      46.377007      145.31791    
     49800  -19580.348      115.80416     -19464.543      45.433618      46.367473      145.37611    
     49900  -19570.21       117.59935     -19452.611      45.42486       46.359354      145.4343     
     50000  -19563.665      119.97485     -19443.69       45.415222      46.350726      145.4925     
     50100  -19557.142      117.71159     -19439.43       45.404849      46.341848      145.5507     
     50200  -19552.506      117.52292     -19434.983      45.396276      46.334599      145.60889    
     50300  -19546.853      118.37584     -19428.477      45.385866      46.3261        145.66709    
     50400  -19538.709      117.85544     -19420.854      45.376157      46.318338      145.72529    
     50500  -19529.011      118.30889     -19410.702      45.367149      46.310881      145.78348    
     50600  -19523.511      122.3189      -19401.193      45.357773      46.302122      145.84168    
     50700  -19516.242      118.33286     -19397.909      45.350404      46.294222      145.89988    
     50800  -19509.733      116.48244     -19393.25       45.341876      46.285512      145.95808    
     50900  -19502.088      115.22959     -19386.858      45.33279       46.276799      146.01627    
     51000  -19496.265      117.36785     -19378.897      45.3237        46.268674      146.07447    
     51100  -19488.262      118.20857     -19370.054      45.314373      46.260427      146.13267    
     51200  -19480.932      119.55701     -19361.375      45.306032      46.253097      146.19086    
     51300  -19475.057      118.09952     -19356.957      45.297158      46.245579      146.24906    
     51400  -19470.203      117.16604     -19353.036      45.287752      46.237991      146.30726    
     51500  -19464.106      118.44388     -19345.662      45.278969      46.230965      146.36545    
     51600  -19453.946      117.44684     -19336.499      45.269943      46.223443      146.42365    
     51700  -19444.995      118.79908     -19326.196      45.26085       46.215953      146.48185    
     51800  -19439.07       123.03039     -19316.039      45.252173      46.20909       146.54005    
     51900  -19432.818      120.3636      -19312.455      45.243405      46.201459      146.59824    
     52000  -19427.041      118.30918     -19308.731      45.235659      46.194409      146.65644    
     52100  -19419.56       116.79829     -19302.762      45.227246      46.186817      146.71464    
     52200  -19410.056      114.89727     -19295.158      45.219153      46.179327      146.77283    
     52300  -19404.353      119.33578     -19285.017      45.211722      46.172538      146.83103    
     52400  -19394.684      118.60073     -19276.084      45.203214      46.165568      146.88923    
     52500  -19387.848      114.99582     -19272.852      45.194128      46.158576      146.94743    
     52600  -19382.574      114.1847      -19268.39       45.185444      46.151877      147.00562    
     52700  -19376.405      116.0942      -19260.311      45.176774      46.145165      147.06382    
     52800  -19368.704      118.11057     -19250.594      45.168589      46.138621      147.12202    
     52900  -19360.499      119.17773     -19241.321      45.160608      46.132193      147.18021    
     53000  -19350.976      116.22075     -19234.756      45.152205      46.125429      147.23841    
     53100  -19350.284      118.09972     -19232.184      45.143932      46.11943       147.29661    
     53200  -19342.738      116.44911     -19226.289      45.13521       46.113286      147.3548     
     53300  -19333.239      115.29844     -19217.941      45.126641      46.106741      147.413      
     53400  -19325.71       118.51022     -19207.2        45.119162      46.100717      147.4712     
     53500  -19318.634      120.88759     -19197.746      45.111779      46.093604      147.5294     
     53600  -19311.914      117.33342     -19194.581      45.104979      46.086795      147.58759    
     53700  -19306.977      117.18198     -19189.795      45.097956      46.080492      147.64579    
     53800  -19297.986      116.66219     -19181.324      45.090221      46.07394       147.70399    
     53900  -19290.002      118.07118     -19171.931      45.082322      46.06755       147.76218    
     54000  -19281.504      117.20837     -19164.295      45.074303      46.061553      147.82038    
     54100  -19277.102      117.04182     -19160.06       45.066348      46.055012      147.87858    
     54200  -19270.268      115.07451     -19155.193      45.059149      46.048475      147.93677    
     54300  -19263.175      116.5452      -19146.63       45.052348      46.041781      147.99497    
     54400  -19254.843      117.9491      -19136.893      45.045609      46.034999      148.05317    
     54500  -19247.768      120.68976     -19127.079      45.03895       46.028643      148.11137    
     54600  -19237.696      123.04909     -19114.646      45.032425      46.02274       148.16956    
     54700  -19232.957      123.75452     -19109.202      45.025133      46.016889      148.22776    
     54800  -19226.018      119.88821     -19106.129      45.017322      46.010649      148.28596    
     54900  -19218.753      117.05052     -19101.702      45.009776      46.004834      148.34415    
     55000  -19213.259      116.93183     -19096.327      45.002173      45.998639      148.40235    
     55100  -19207.037      117.92146     -19089.116      44.994487      45.992908      148.46055    
     55200  -19196.377      117.90539     -19078.472      44.986601      45.987085      148.51874    
     55300  -19186.905      119.17132     -19067.734      44.979206      45.982299      148.57694    
     55400  -19182.382      120.88153     -19061.5        44.972536      45.977867      148.63514    
     55500  -19175.133      118.61094     -19056.522      44.965274      45.972409      148.69333    
     55600  -19167.092      116.79016     -19050.302      44.958276      45.966493      148.75153    
     55700  -19162.559      118.33718     -19044.222      44.952072      45.960776      148.80973    
     55800  -19156.243      117.51109     -19038.732      44.945591      45.95457       148.86793    
     55900  -19149.156      114.87536     -19034.281      44.938925      45.94842       148.92612    
     56000  -19142.899      114.69913     -19028.2        44.932416      45.942931      148.98432    
     56100  -19132.743      116.62379     -19016.119      44.925412      45.937441      149.04252    
     56200  -19125.887      119.70385     -19006.183      44.919153      45.932809      149.10071    
     56300  -19116.401      117.23644     -18999.164      44.912526      45.927298      149.15891    
     56400  -19110.534      117.06357     -18993.471      44.905971      45.921303      149.21711    
     56500  -19104.54       115.54861     -18988.991      44.90017       45.915947      149.27531    
     56600  -19096.702      113.99895     -18982.703      44.89368       45.909459      149.3335     
     56700  -19087.122      116.91469     -18970.208      44.887818      45.903982      149.3917     
     56800  -19079.863      119.82229     -18960.041      44.880938      45.898552      149.4499     
     56900  -19072.174      117.36419     -18954.81       44.874158      45.893729      149.50809    
     57000  -19066.826      116.67011     -18950.156      44.867677      45.889357      149.56629    
     57100  -19060.513      117.35488     -18943.158      44.860672      45.883501      149.62449    
     57200  -19052.931      117.50636     -18935.425      44.854622      45.878156      149.68268    
     57300  -19043.829      116.11959     -18927.709      44.848173      45.872451      149.74088    
     57400  -19036.908      116.90732     -18920          44.841366      45.866312      149.79908    
     57500  -19029.49       116.75963     -18912.731      44.8353        45.861222      149.85728    
     57600  -19020.971      115.79291     -18905.178      44.828552      45.855747      149.91547    
     57700  -19014.313      115.78442     -18898.528      44.822628      45.851737      149.97367    
     57800  -19005.985      112.74588     -18893.239      44.816148      45.846881      150.03187    
     57900  -19003.495      117.00894     -18886.486      44.810012      45.842564      150.09006    
     58000  -18992.637      116.16559     -18876.472      44.803822      45.838071      150.14826    
     58100  -18983.361      118.91399     -18864.447      44.796992      45.832288      150.20646    
     58200  -18974.618      117.02713     -18857.591      44.791726      45.828215      150.26465    
     58300  -18971.503      118.52405     -18852.979      44.785876      45.822266      150.32285    
     58400  -18961.975      115.43897     -18846.536      44.780398      45.815867      150.38105    
     58500  -18955.857      115.83671     -18840.02       44.776497      45.810879      150.43924    
     58600  -18950.301      115.96198     -18834.339      44.770917      45.803575      150.49744    
     58700  -18944.345      116.93784     -18827.408      44.766739      45.798474      150.55564    
     58800  -18936.163      116.18454     -18819.978      44.761941      45.793281      150.61384    
     58900  -18927.324      115.78198     -18811.542      44.755168      45.786788      150.67203    
     59000  -18920.764      119.49055     -18801.273      44.750029      45.783392      150.73023    
     59100  -18910.606      118.37754     -18792.228      44.742314      45.778031      150.78843    
     59200  -18905.462      117.89224     -18787.57       44.734925      45.77355       150.84662    
     59300  -18899.662      117.25468     -18782.408      44.729242      45.770615      150.90482    
     59400  -18890.612      115.78918     -18774.823      44.721881      45.764221      150.96302    
     59500  -18883.781      118.42662     -18765.354      44.716929      45.760039      151.02121    
     59600  -18874.51       118.70367     -18755.807      44.711418      45.755148      151.07941    
     59700  -18864.617      119.77144     -18744.846      44.704886      45.749063      151.13761    
     59800  -18857.166      119.40424     -18737.762      44.70017       45.745868      151.19581    
     59900  -18851.367      117.47785     -18733.889      44.693566      45.740188      151.254      
     60000  -18843.746      115.69728     -18728.049      44.688269      45.735896      151.3122     
     60100  -18837.458      115.71745     -18721.741      44.682908      45.731144      151.3704     
     60200  -18830.486      115.41738     -18715.069      44.677183      45.725533      151.42859    
     60300  -18823.825      116.30433     -18707.521      44.672516      45.721114      151.48679    
     60400  -18816.368      118.45011     -18697.918      44.666947      45.714804      151.54499    
     60500  -18801.354      114.79345     -18686.561      44.662435      45.709987      151.60318    
     60600  -18796.015      117.09099     -18678.924      44.657461      45.704038      151.66138    
     60700  -18791.901      117.29467     -18674.607      44.652355      45.698087      151.71958    
     60800  -18786.008      118.22286     -18667.785      44.64787       45.692928      151.77778    
     60900  -18775.855      116.0975      -18659.757      44.64205       45.68667       151.83597    
     61000  -18770.995      118.63975     -18652.356      44.637134      45.682701      151.89417    
     61100  -18763.568      115.74082     -18647.827      44.630848      45.677468      151.95237    
     61200  -18753.882      113.22897     -18640.653      44.624857      45.672697      152.01056    
     61300  -18747.277      118.66484     -18628.613      44.619246      45.668418      152.06876    
     61400  -18734.698      117.7669      -18616.931      44.612618      45.66274       152.12696    
     61500  -18731.999      122.10562     -18609.893      44.607387      45.658922      152.18516    
     61600  -18722.169      117.25182     -18604.917      44.601669      45.65414       152.24335    
     61700  -18715.315      117.09921     -18598.216      44.595997      45.649043      152.30155    
     61800  -18708.259      117.34291     -18590.916      44.591434      45.644913      152.35975    
     61900  -18701.383      117.23172     -18584.151      44.58575       45.638408      152.41794    
     62000  -18693.645      115.09758     -18578.547      44.581492      45.633848      152.47614    
     62100  -18685.508      112.91431     -18572.594      44.576486      45.628226      152.53434    
     62200  -18676.207      115.43847     -18560.768      44.571165      45.622179      152.59253    
     62300  -18668.543      119.28253     -18549.261      44.567351      45.617408      152.65073    
     62400  -18659.789      118.62585     -18541.163      44.562327      45.610469      152.70893    
     62500  -18653.384      118.52952     -18534.854      44.558162      45.604846      152.76713    
     62600  -18643.375      114.76754     -18528.607      44.553144      45.599218      152.82532    
     62700  -18635.077      114.80492     -18520.273      44.547261      45.593436      152.88352    
     62800  -18627.133      117.78816     -18509.344      44.542226      45.589398      152.94172    
     62900  -18613.355      119.28365     -18494.071      44.536096      45.583514      152.99991    
     63000  -18609.401      121.93203     -18487.469      44.530705      45.578273      153.05811    
     63100  -18600.323      117.24827     -18483.075      44.526065      45.573707      153.11631    
     63200  -18594.754      116.91503     -18477.839      44.520647      45.5678        153.1745     
     63300  -18585.946      114.80356     -18471.143      44.516487      45.563607      153.2327     
     63400  -18578.286      114.79092     -18463.495      44.510873      45.558025      153.2909     
     63500  -18571.858      117.41418     -18454.444      44.505031      45.553393      153.3491     
     63600  -18563.2        118.78795     -18444.412      44.499032      45.548976      153.40729    
     63700  -18553.744      117.82906     -18435.915      44.492577      45.543453      153.46549    
     63800  -18546.074      116.44825     -18429.626      44.487457      45.538926      153.52369    
     63900  -18538.15       115.13424     -18423.016      44.481732      45.532793      153.58188    
     64000  -18530.084      115.79004     -18414.294      44.477273      45.527775      153.64008    
     64100  -18521.086      119.01832     -18402.067      44.472614      45.521435      153.69828    
     64200  -18509.986      121.69321     -18388.292      44.468362      45.515332      153.75647    
     64300  -18498.706      118.10197     -18380.604      44.464116      45.509107      153.81467    
     64400  -18492.586      117.89088     -18374.695      44.459496      45.502799      153.87287    
     64500  -18487.195      118.94511     -18368.25       44.454815      45.497056      153.93106    
     64600  -18476.682      115.29102     -18361.391      44.449422      45.491214      153.98926    
     64700  -18471.016      117.25452     -18353.762      44.443997      45.486026      154.04746    
     64800  -18461.98       116.26274     -18345.717      44.438274      45.48071       154.10566    
     64900  -18454.912      116.85204     -18338.06       44.432762      45.475728      154.16385    
     65000  -18447.979      116.16249     -18331.816      44.427304      45.471221      154.22205    
     65100  -18437.268      115.53003     -18321.738      44.421792      45.466364      154.28025    
     65200  -18428.272      119.91083     -18308.361      44.416158      45.460864      154.33844    
     65300  -18416.413      119.51268     -18296.9        44.411445      45.456248      154.39664    
     65400  -18406.491      117.3181      -18289.173      44.405829      45.449825      154.45484    
     65500  -18397.995      116.23261     -18281.763      44.400894      45.444215      154.51304    
     65600  -18392.853      118.73512     -18274.118      44.396029      45.438519      154.57123    
     65700  -18382.149      116.27467     -18265.874      44.390596      45.432001      154.62943    
     65800  -18375.7        118.63985     -18257.06       44.386083      45.427051      154.68763    
     65900  -18364.354      116.66111     -18247.693      44.380952      45.420922      154.74582    
     66000  -18355.713      116.33125     -18239.382      44.37612       45.414477      154.80402    
     66100  -18346.452      111.88344     -18234.568      44.371459      45.408349      154.86222    
     66200  -18341.196      117.94704     -18223.249      44.366472      45.40208       154.92041    
     66300  -18328.374      118.75944     -18209.615      44.361285      45.395931      154.97861    
     66400  -18317.974      119.18457     -18198.79       44.355887      45.38985       155.03681    
     66500  -18309.235      117.32261     -18191.913      44.350647      45.384571      155.09501    
     66600  -18300.521      116.59396     -18183.927      44.345116      45.378861      155.1532     
     66700  -18292.091      117.58325     -18174.508      44.339692      45.373185      155.2114     
     66800  -18282.333      116.94139     -18165.392      44.334629      45.36782       155.2696     
     66900  -18271.624      114.34529     -18157.279      44.329006      45.361285      155.32779    
     67000  -18264.231      115.57293     -18148.658      44.324264      45.355999      155.38599    
     67100  -18254.832      113.23272     -18141.599      44.318763      45.349333      155.44419    
     67200  -18248.028      113.83121     -18134.197      44.313939      45.343784      155.50238    
     67300  -18234.271      114.16311     -18120.108      44.308558      45.337747      155.56058    
     67400  -18223.498      118.92669     -18104.571      44.302936      45.331546      155.61878    
     67500  -18211.13       116.53102     -18094.599      44.297811      45.326231      155.67697    
     67600  -18206.964      119.37576     -18087.588      44.291862      45.31931       155.73517    
     67700  -18196.594      117.10823     -18079.486      44.287262      45.313854      155.79337    
     67800  -18187.949      117.19211     -18070.757      44.281924      45.306993      155.85157    
     67900  -18178.895      117.70275     -18061.192      44.277542      45.300918      155.90976    
     68000  -18165.839      114.00569     -18051.834      44.272737      45.294075      155.96796    
     68100  -18160.664      116.21522     -18044.448      44.267496      45.287012      156.02616    
     68200  -18150.886      115.41537     -18035.471      44.262628      45.281136      156.08435    
     68300  -18140.221      116.97647     -18023.245      44.25668       45.274686      156.14255    
     68400  -18126.175      115.92857     -18010.246      44.250767      45.269106      156.20075    
     68500  -18118.923      119.77981     -17999.143      44.244567      45.263441      156.25895    
     68600  -18110.097      117.0043      -17993.092      44.238404      45.257408      156.31714    
     68700  -18098.987      116.8625      -17982.124      44.232947      45.251494      156.37534    
     68800  -18088.734      118.46479     -17970.269      44.22763       45.244994      156.43354    
     68900  -18078.19       117.91941     -17960.271      44.222334      45.238174      156.49173    
     69000  -18068.991      117.85256     -17951.139      44.217054      45.231652      156.54993    
     69100  -18059.475      118.9871      -17940.488      44.211489      45.225049      156.60813    
     69200  -18046.358      116.75379     -17929.604      44.20584       45.218844      156.66632    
     69300  -18037.245      117.27071     -17919.974      44.199909      45.212626      156.72452    
     69400  -18027.688      117.98332     -17909.705      44.193839      45.206323      156.78272    
     69500  -18015.605      117.18523     -17898.42       44.187894      45.200134      156.84091    
     69600  -18008.159      120.77539     -17887.384      44.181991      45.193489      156.89911    
     69700  -17995.805      118.27852     -17877.526      44.177273      45.18702       156.95731    
     69800  -17986.437      120.32028     -17866.117      44.172278      45.179261      157.01551    
     69900  -17974.397      118.69505     -17855.702      44.167801      45.172482      157.0737     
     70000  -17962.632      117.19478     -17845.438      44.162644      45.165156      157.1319     
     70100  -17952.975      118.32045     -17834.654      44.156988      45.15768       157.1901     
     70200  -17941.337      117.31876     -17824.018      44.151718      45.151508      157.24829    
     70300  -17931.28       118.44592     -17812.834      44.145262      45.144214      157.30649    
     70400  -17920.788      119.41511     -17801.373      44.139656      45.138343      157.36469    
     70500  -17911.28       120.84709     -17790.433      44.133276      45.13136       157.42289    
     70600  -17899.943      120.29997     -17779.643      44.127208      45.124847      157.48108    
     70700  -17888.789      119.41588     -17769.373      44.12142       45.118704      157.53928    
     70800  -17876.945      119.06106     -17757.884      44.115155      45.111302      157.59748    
     70900  -17867.302      120.8745      -17746.428      44.109764      45.104877      157.65567    
     71000  -17853.435      119.15877     -17734.276      44.10379       45.097279      157.71387    
     71100  -17842.52       118.35384     -17724.166      44.098074      45.090093      157.77207    
     71200  -17832.557      119.49657     -17713.06       44.092352      45.083065      157.83026    
     71300  -17822.185      119.69385     -17702.491      44.086369      45.075855      157.88846    
     71400  -17809.08       117.77702     -17691.303      44.08045       45.069221      157.94666    
     71500  -17800.406      121.875       -17678.531      44.074518      45.062581      158.00486    
     71600  -17788.083      120.45925     -17667.623      44.068564      45.055576      158.06305    
     71700  -17777.134      120.12494     -17657.009      44.06284       45.048551      158.12125    
     71800  -17765.973      120.70342     -17645.27       44.056956      45.041042      158.17945    
     71900  -17753.942      119.17699     -17634.765      44.051256      45.033446      158.23764    
     72000  -17743.692      120.08698     -17623.605      44.045539      45.026218      158.29584    
     72100  -17732.314      120.41891     -17611.895      44.039062      45.018633      158.35404    
     72200  -17719.746      119.31659     -17600.429      44.033002      45.01236       158.41223    
     72300  -17702.542      114.95241     -17587.59       44.026169      45.005203      158.47043    
     72400  -17696.827      120.47521     -17576.352      44.019369      44.997993      158.52863    
     72500  -17684.705      120.81835     -17563.887      44.013376      44.991496      158.58683    
     72600  -17670.963      118.923       -17552.04       44.006936      44.983394      158.64502    
     72700  -17663.666      124.14734     -17539.519      44.001483      44.976063      158.70322    
     72800  -17651.666      124.21497     -17527.451      43.99556       44.967689      158.76142    
     72900  -17634.846      119.71167     -17515.134      43.989812      44.959727      158.81961    
     73000  -17625.738      122.76418     -17502.974      43.984028      44.952007      158.87781    
     73100  -17610.796      118.99857     -17491.797      43.977615      44.944042      158.93601    
     73200  -17598.949      119.53447     -17479.414      43.971449      44.937088      158.9942     
[...]
    181600  -21637.164      119.86613     -21517.298      49.026624      41.894162      222.07975    
    181700  -21638.156      116.68895     -21521.467      49.022194      41.891284      222.13795    
    181800  -21635.731      113.98361     -21521.748      49.017751      41.888746      222.19615    
    181900  -21635.869      116.1485      -21519.72       49.013116      41.886074      222.25434    
    182000  -21634.893      116.80465     -21518.089      49.007466      41.882865      222.31254    
    182100  -21636.346      118.36432     -21517.982      49.003301      41.88033       222.37074    
    182200  -21636.128      117.48269     -21518.645      48.998516      41.876773      222.42893    
    182300  -21637.808      118.14664     -21519.661      48.99489       41.873187      222.48713    
    182400  -21638.399      115.09521     -21523.304      48.991194      41.86953       222.54533    
    182500  -21637.42       112.23505     -21525.185      48.985322      41.865193      222.60352    
    182600  -21635.283      113.71447     -21521.569      48.98059       41.861259      222.66172    
    182700  -21638.196      119.05898     -21519.137      48.97528       41.855808      222.71992    
    182800  -21636.579      117.9532      -21518.626      48.972068      41.851677      222.77812    
    182900  -21635.173      116.34475     -21518.829      48.966317      41.847069      222.83631    
    183000  -21636.377      115.86816     -21520.509      48.960937      41.843592      222.89451    
    183100  -21640.806      117.75341     -21523.052      48.956594      41.840012      222.95271    
    183200  -21638.099      114.95967     -21523.14       48.952322      41.835557      223.0109     
    183300  -21637.704      119.3833      -21518.321      48.948769      41.831337      223.0691     
    183400  -21636.963      119.73024     -21517.233      48.94588       41.826398      223.1273     
    183500  -21635.481      117.15399     -21518.327      48.943722      41.821167      223.1855     
    183600  -21635.482      115.05768     -21520.425      48.940506      41.815224      223.24369    
    183700  -21637.626      113.83474     -21523.791      48.937366      41.81026       223.30189    
    183800  -21638.865      114.02251     -21524.843      48.933972      41.805389      223.36009    
    183900  -21637.369      118.09523     -21519.274      48.930809      41.800714      223.41828    
    184000  -21636.27       119.07805     -21517.192      48.927481      41.796271      223.47648    
    184100  -21632.674      115.15379     -21517.52       48.923438      41.791994      223.53468    
    184200  -21636.656      117.10481     -21519.551      48.920371      41.788427      223.59287    
    184300  -21634.926      113.0402      -21521.886      48.916149      41.783844      223.65107    
    184400  -21636.057      113.36901     -21522.688      48.912698      41.779465      223.70927    
    184500  -21635.546      117.44773     -21518.098      48.909331      41.77582       223.76747    
    184600  -21635.227      119.37266     -21515.854      48.905026      41.77176       223.82566    
    184700  -21633.112      115.43305     -21517.679      48.901004      41.767842      223.88386    
    184800  -21634.662      114.34922     -21520.312      48.895644      41.764044      223.94206    
    184900  -21637.479      116.45566     -21521.024      48.88929       41.760611      224.00025    
    185000  -21635.534      118.37646     -21517.158      48.883178      41.756557      224.05845    
    185100  -21633.537      119.58813     -21513.949      48.878243      41.752669      224.11665    
    185200  -21635.73       119.43088     -21516.299      48.872224      41.748279      224.17484    
    185300  -21635.279      115.97276     -21519.306      48.865972      41.743269      224.23304    
    185400  -21637.776      117.69567     -21520.081      48.861606      41.739433      224.29124    
    185500  -21634.729      115.36978     -21519.359      48.857429      41.73541       224.34944    
    185600  -21634.092      118.32876     -21515.764      48.853197      41.731407      224.40763    
    185700  -21632.556      119.65362     -21512.902      48.849239      41.727084      224.46583    
    185800  -21634.644      119.21813     -21515.426      48.846344      41.721832      224.52403    
    185900  -21637.006      118.87248     -21518.134      48.843735      41.716731      224.58222    
    186000  -21636.003      117.02678     -21518.976      48.84018       41.710947      224.64042    
    186100  -21635.54       116.14769     -21519.392      48.836971      41.705925      224.69862    
    186200  -21637.151      118.66464     -21518.487      48.83077       41.699969      224.75681    
    186300  -21633.591      117.67516     -21515.916      48.825463      41.695167      224.81501    
    186400  -21635.609      120.75716     -21514.851      48.819762      41.689482      224.87321    
    186500  -21635.2        116.36766     -21518.833      48.814306      41.683824      224.9314     
    186600  -21635.945      114.92139     -21521.023      48.809137      41.677906      224.9896     
    186700  -21637.122      117.17634     -21519.946      48.804374      41.672151      225.0478     
    186800  -21636.627      119.04638     -21517.581      48.80009       41.66707       225.106      
    186900  -21632.939      116.62535     -21516.314      48.793526      41.661346      225.16419    
    187000  -21636.532      117.0229      -21519.509      48.788387      41.656234      225.22239    
    187100  -21638.118      115.03402     -21523.084      48.783527      41.651524      225.28059    
    187200  -21638.064      116.34668     -21521.717      48.778361      41.64671       225.33878    
    187300  -21634.966      116.73471     -21518.232      48.772323      41.641579      225.39698    
    187400  -21632.042      115.31838     -21516.723      48.766616      41.635743      225.45518    
    187500  -21636.402      118.94603     -21517.456      48.761585      41.629059      225.51337    
    187600  -21635.9        115.33775     -21520.563      48.755598      41.621921      225.57157    
    187700  -21639.123      115.12192     -21524.001      48.751811      41.616111      225.62977    
    187800  -21636.374      113.70266     -21522.671      48.747467      41.609333      225.68797    
    187900  -21637.984      117.13816     -21520.845      48.743446      41.603961      225.74616    
    188000  -21638.487      119.25626     -21519.23       48.737678      41.597888      225.80436    
    188100  -21634.571      117.27676     -21517.294      48.733929      41.592194      225.86256    
    188200  -21635.085      118.45862     -21516.626      48.729923      41.585488      225.92075    
    188300  -21637.745      119.29286     -21518.452      48.725422      41.57894       225.97895    
    188400  -21636.13       114.5008      -21521.63       48.721292      41.572981      226.03715    
    188500  -21637.497      115.56904     -21521.928      48.716102      41.566653      226.09535    
    188600  -21633.639      116.71542     -21516.924      48.711397      41.560898      226.15354    
    188700  -21635.86       120.46639     -21515.394      48.704837      41.55472       226.21174    
    188800  -21636.203      118.78968     -21517.413      48.699417      41.548777      226.26994    
    188900  -21636.706      116.73706     -21519.969      48.694742      41.542792      226.32813    
    189000  -21637.65       116.99538     -21520.654      48.689255      41.53656       226.38633    
    189100  -21634.914      116.79297     -21518.121      48.684737      41.530804      226.44453    
    189200  -21632.619      118.8356      -21513.784      48.678959      41.524226      226.50272    
    189300  -21635.354      120.25475     -21515.099      48.674496      41.51881       226.56092    
    189400  -21636.574      118.40211     -21518.172      48.667173      41.512154      226.61912    
    189500  -21637.15       117.63723     -21519.513      48.659661      41.507176      226.67732    
    189600  -21636.758      117.22309     -21519.535      48.651762      41.502094      226.73551    
    189700  -21637.06       117.8192      -21519.241      48.643717      41.49704       226.79371    
    189800  -21632.995      116.51327     -21516.482      48.636439      41.491844      226.85191    
    189900  -21631.346      117.93064     -21513.415      48.628254      41.485622      226.9101     
    190000  -21635.215      119.1898      -21516.025      48.622269      41.480056      226.9683     
    190100  -21634.762      115.41875     -21519.343      48.615051      41.473698      227.0265     
    190200  -21637.047      117.2316      -21519.815      48.608874      41.468221      227.08469    
    190300  -21636.905      117.76612     -21519.139      48.602226      41.463138      227.14289    
    190400  -21633.63       116.98162     -21516.649      48.595106      41.458153      227.20109    
    190500  -21634.474      120.17253     -21514.302      48.588024      41.453422      227.25929    
    190600  -21635.605      118.65168     -21516.953      48.579216      41.448069      227.31748    
    190700  -21635.844      115.1653      -21520.679      48.569917      41.44244       227.37568    
    190800  -21635.723      115.00181     -21520.721      48.560599      41.436959      227.43388    
    190900  -21635.973      116.57212     -21519.401      48.552397      41.431426      227.49207    
    191000  -21634.846      118.35474     -21516.491      48.544125      41.426004      227.55027    
    191100  -21632.406      118.67939     -21513.727      48.534846      41.420499      227.60847    
    191200  -21635.831      119.98117     -21515.85       48.525661      41.414999      227.66666    
    191300  -21637.539      117.02996     -21520.509      48.516655      41.408384      227.72486    
    191400  -21637.508      116.41035     -21521.098      48.510835      41.402111      227.78306    
    191500  -21635.764      116.41871     -21519.345      48.503424      41.394729      227.84125    
    191600  -21635.55       119.04986     -21516.5        48.496472      41.387568      227.89945    
    191700  -21634.994      119.00212     -21515.992      48.4881        41.379633      227.95765    
    191800  -21636.427      115.27711     -21521.15       48.480989      41.371881      228.01585    
    191900  -21637.787      115.41379     -21522.373      48.472368      41.363848      228.07404    
    192000  -21637.559      116.59797     -21520.961      48.462514      41.356278      228.13224    
    192100  -21636.226      117.75777     -21518.469      48.454087      41.349108      228.19044    
    192200  -21633.284      117.04925     -21516.234      48.445638      41.341257      228.24863    
    192300  -21633.689      118.66854     -21515.021      48.437791      41.33397       228.30683    
    192400  -21636.549      119.3176      -21517.231      48.429697      41.326607      228.36503    
    192500  -21638.599      117.82256     -21520.776      48.42394       41.320106      228.42323    
    192600  -21637.543      115.41546     -21522.128      48.417734      41.313849      228.48142    
    192700  -21635.783      114.69803     -21521.085      48.409027      41.307296      228.53962    
    192800  -21634.605      117.61229     -21516.993      48.402416      41.301756      228.59782    
    192900  -21631.987      116.21117     -21515.776      48.394702      41.294618      228.65601    
    193000  -21634.836      117.55164     -21517.284      48.386003      41.288194      228.71421    
    193100  -21633.238      114.75727     -21518.481      48.376704      41.28127       228.77241    
    193200  -21635.326      116.10258     -21519.223      48.368823      41.273252      228.8306     
    193300  -21636.886      117.15168     -21519.734      48.361246      41.265367      228.8888     
    193400  -21636.099      116.03803     -21520.061      48.351528      41.256273      228.947      
    193500  -21634.922      114.57626     -21520.346      48.343698      41.247487      229.0052     
    193600  -21635.822      116.37607     -21519.445      48.337509      41.239059      229.06339    
    193700  -21635.461      117.80799     -21517.653      48.328488      41.229708      229.12159    
    193800  -21638.236      121.37753     -21516.859      48.319687      41.221697      229.17979    
    193900  -21639.455      120.02186     -21519.434      48.310767      41.212556      229.23798    
    194000  -21638.626      116.03373     -21522.592      48.303207      41.203787      229.29618    
    194100  -21636.672      114.92468     -21521.747      48.294107      41.194713      229.35438    
    194200  -21635.624      117.03081     -21518.593      48.285459      41.186245      229.41257    
    194300  -21636.498      119.18441     -21517.313      48.275915      41.176545      229.47077    
    194400  -21633.427      115.83087     -21517.596      48.265606      41.166585      229.52897    
    194500  -21636.397      117.42252     -21518.974      48.256636      41.158058      229.58717    
    194600  -21638.169      116.49168     -21521.677      48.246167      41.148254      229.64536    
    194700  -21639.565      114.84004     -21524.725      48.237128      41.139607      229.70356    
    194800  -21637.245      113.19692     -21524.048      48.226107      41.129894      229.76176    
    194900  -21637.043      118.62557     -21518.417      48.216473      41.120224      229.81995    
    195000  -21636.712      119.95423     -21516.757      48.206997      41.109978      229.87815    
    195100  -21636.121      118.45604     -21517.665      48.194296      41.098571      229.93635    
    195200  -21635.223      114.35844     -21520.864      48.184312      41.089166      229.99454    
    195300  -21637.079      115.02886     -21522.05       48.173779      41.07803       230.05274    
    195400  -21636.017      115.75494     -21520.262      48.164522      41.068164      230.11094    
    195500  -21634.991      119.83241     -21515.159      48.151215      41.05663       230.16914    
    195600  -21633.757      118.0599      -21515.697      48.140453      41.04574       230.22733    
    195700  -21637.799      119.0653      -21518.734      48.131358      41.034916      230.28553    
    195800  -21637.126      116.05497     -21521.071      48.119269      41.022933      230.34373    
    195900  -21637.89       116.58936     -21521.301      48.107494      41.011279      230.40192    
    196000  -21635.833      115.55269     -21520.281      48.096979      40.999177      230.46012    
    196100  -21635.819      120.34729     -21515.472      48.087381      40.987956      230.51832    
    196200  -21634.095      119.41794     -21514.677      48.075544      40.977174      230.57651    
    196300  -21636.885      119.39152     -21517.493      48.063629      40.966914      230.63471    
    196400  -21636.711      117.41047     -21519.3        48.053246      40.956783      230.69291    
    196500  -21635.941      115.4753      -21520.465      48.041769      40.945092      230.7511     
    196600  -21639.179      117.76396     -21521.415      48.031563      40.934188      230.8093     
    196700  -21635.175      113.93445     -21521.241      48.020054      40.922915      230.8675     
    196800  -21637.368      119.6996      -21517.669      48.009014      40.911293      230.9257     
    196900  -21635.953      120.02903     -21515.924      47.996714      40.899561      230.98389    
    197000  -21636.808      118.86908     -21517.939      47.98291       40.887794      231.04209    
    197100  -21638.349      116.85085     -21521.498      47.970418      40.876102      231.10029    
    197200  -21637.135      115.37463     -21521.761      47.956941      40.863062      231.15848    
    197300  -21633.709      113.27135     -21520.438      47.946613      40.851002      231.21668    
    197400  -21635.688      116.77037     -21518.918      47.934045      40.837158      231.27488    
    197500  -21636.502      118.28862     -21518.214      47.923539      40.823954      231.33308    
    197600  -21638.359      117.49355     -21520.865      47.913013      40.810827      231.39127    
    197700  -21639.088      115.23403     -21523.854      47.901975      40.797653      231.44947    
    197800  -21637.735      116.11224     -21521.623      47.892556      40.78562       231.50767    
    197900  -21634.477      116.08543     -21518.392      47.879796      40.773132      231.56586    
    198000  -21636.586      119.33422     -21517.252      47.868023      40.761728      231.62406    
    198100  -21635.881      117.82964     -21518.051      47.8553        40.748837      231.68226    
    198200  -21639.146      118.24168     -21520.904      47.843457      40.73667       231.74045    
    198300  -21638.67       113.25739     -21525.413      47.829298      40.723933      231.79865    
    198400  -21637.724      113.79236     -21523.931      47.815459      40.711372      231.85685    
    198500  -21639.574      118.59754     -21520.976      47.803586      40.699826      231.91505    
    198600  -21635.995      117.05262     -21518.942      47.787894      40.687506      231.97324    
    198700  -21634.468      116.2605      -21518.207      47.774573      40.676736      232.03144    
    198800  -21635.825      117.47661     -21518.348      47.761622      40.664645      232.08964    
    198900  -21639.155      118.53746     -21520.617      47.749495      40.653476      232.14783    
    199000  -21636.539      114.59005     -21521.949      47.734401      40.641652      232.20603    
    199100  -21637.047      116.8194      -21520.228      47.720724      40.629853      232.26423    
    199200  -21634.746      118.03396     -21516.712      47.708141      40.617819      232.32242    
    199300  -21634.032      118.05421     -21515.978      47.693487      40.604924      232.38062    
    199400  -21637.645      119.07472     -21518.571      47.679424      40.592773      232.43882    
    199500  -21637.856      114.71652     -21523.14       47.665102      40.579351      232.49702    
    199600  -21636.483      114.12378     -21522.36       47.652717      40.566392      232.55521    
    199700  -21636.481      117.09787     -21519.383      47.639261      40.552851      232.61341    
    199800  -21635.529      118.55924     -21516.97       47.625281      40.539111      232.67161    
    199900  -21635.87       119.03952     -21516.831      47.612216      40.5254        232.7298     
    200000  -21637.679      117.03227     -21520.647      47.600075      40.512293      232.788      
Loop time of 2514.35 on 8 procs for 200000 steps with 3024 atoms

Performance: 6.873 ns/day, 3.492 hours/ns, 79.543 timesteps/s
93.8% CPU use with 8 MPI tasks x 1 OpenMP threads

MPI task timing breakdown:
Section |  min time  |  avg time  |  max time  |%varavg| %total
---------------------------------------------------------------
Pair    | 613.89     | 1484.6     | 2241.5     |1518.0 | 59.04
Neigh   | 3.525      | 9.7311     | 18.184     | 150.8 |  0.39
Comm    | 193.82     | 756.29     | 1300.5     |1383.8 | 30.08
Output  | 0.90227    | 0.91955    | 1.0375     |   4.6 |  0.04
Modify  | 53.207     | 259.57     | 850.51     |2117.1 | 10.32
Other   |            | 3.287      |            |       |  0.13

Nlocal:            378 ave         881 max           0 min
Histogram: 2 2 0 0 0 1 0 1 1 1
Nghost:        1380.38 ave        2903 max          53 min
Histogram: 2 0 0 1 1 1 1 0 1 1
Neighs:              0 ave           0 max           0 min
Histogram: 8 0 0 0 0 0 0 0 0 0

Total # of neighbors = 0
Ave neighs/atom = 0
Neighbor list builds = 1021
Dangerous builds = 0
Total wall time: 0:41:54
