ITEM: TIMESTEP
60000
ITEM: NUMBER OF ATOMS
2928
ITEM: BOX BOUNDS pp pp pp
-2.2241824099549063e+01 2.2241824099549063e+01
-2.2873559781069840e+01 2.2873559781069840e+01
-1.7337828800000000e+01 1.2766946480000000e+02
ITEM: ATOMS type x y z f_avestress[1] f_avestress[2] f_avestress[3] f_avestress[4] f_avestress[5] f_avestress[6]
3 -3.91958 -6.70351 -15.7597 108472 -127338 1.43309e+07 158299 -38210.6 -108426
3 -1.379 -7.29397 -15.7907 9066.44 8244.81 1.41102e+07 -153434 -36763.2 -141653
3 0.0794084 -7.23855 -15.8295 -37165.8 41648.1 1.42031e+07 147407 -14331.4 -95543.3
3 2.58993 -6.47699 -15.8128 162319 -74112.2 1.42666e+07 -65910.5 -66724.4 -24035.8
3 -7.26722 -4.5712 -15.8812 213617 -241406 1.41454e+07 -47975.9 120739 -63449.6
3 -5.27546 -6.24027 -15.8018 -192556 168003 1.41491e+07 -87576.5 12842.1 -48819.7
3 3.79714 -5.67374 -15.8031 -48467.2 128448 1.43007e+07 101355 -86078.3 49503.1
3 6.02791 -4.19975 -15.7358 170606 -182709 1.40484e+07 3941.21 -77299 89569.9
3 -7.98249 -3.32351 -15.8613 -175567 152349 1.43064e+07 156355 130769 -72415.6
3 7.055 -3.15539 -15.8117 -154485 166892 1.41244e+07 -62002.2 -114678 64024.5
3 -8.59515 -0.767144 -15.8217 -20266.8 -4955.28 1.41375e+07 -232796 111025 35777.3
3 8.30832 -0.786156 -15.8408 86320.9 -137629 1.41953e+07 175081 -79146.2 -27217.9
3 -3.34829 -6.85471 -14.2744 -88403.3 79202.7 1.43126e+07 -146493 -49501.7 -112718
3 -1.92529 -7.13145 -14.2891 17312.4 -41535.5 1.4046e+07 173580 -43272.1 -139649
3 0.673567 -7.11378 -14.2988 86493.7 -61430.2 1.42794e+07 -113364 -68910.4 -104191
3 2.03351 -6.69391 -14.2782 -40885.4 80710.9 1.42684e+07 119642 -95410.6 -17743.1
3 -6.99135 -5.01756 -14.2724 -211805 188076 1.41811e+07 13230.6 96173.3 -64438.3
3 -5.9055 -5.9782 -14.2886 205394 -195939 1.42205e+07 71953.2 52916.9 -74158.9
3 4.22664 -5.31628 -14.1966 152580 -117755 1.42408e+07 -29946.7 -41173.7 99145.8
3 5.4257 -4.45966 -14.2116 -123487 177691 1.40952e+07 31751.8 -56447.3 115943
3 -8.15743 -2.75864 -14.2351 127890 -189910 1.42631e+07 -179227 117034 -24363.6
3 7.38779 -2.611 -14.2337 152034 -154069 1.41703e+07 92908.5 -99589.5 21171.6
3 -8.46208 -1.31787 -14.2694 -45887.2 -26283.5 1.40607e+07 234421 119751 -18398.8
3 8.18193 -1.32703 -14.2356 -124439 129260 1.41819e+07 -135651 -37773.5 -7729.08
3 -3.95093 -6.84221 -12.7372 158927 -115089 1.43122e+07 130000 -17532.7 -146715
3 -1.38004 -7.3274 -12.7039 -24625.9 1728.03 1.40437e+07 -154630 -30838.6 -144636
3 0.0538974 -7.21687 -12.6967 -37250 51944.7 1.43073e+07 148782 -67789.6 -95323.6
3 2.50157 -6.42856 -12.6731 71894.9 -88904.5 1.42096e+07 -95323.8 -39141.4 25552
3 -7.36215 -4.62512 -12.6679 198535 -245182 1.40917e+07 -51791.4 63280.5 -56109.1
3 -5.30796 -6.23471 -12.694 -149493 181618 1.42549e+07 -105368 5786.76 -76330.2
3 3.68986 -5.59191 -12.6514 -128594 108349 1.41767e+07 61371.1 -91118.3 103057
3 -7.98708 -3.30525 -12.658 -174701 137221 1.42441e+07 165571 113533 -17973
3 5.99063 -4.07224 -12.6804 195496 -149507 1.41021e+07 25119 -66245.5 111740
3 6.97685 -3.09375 -12.6601 -138012 201211 1.42303e+07 -27141.4 -57455 59648.5
3 -8.46658 -0.735466 -12.6572 -6623.8 -39158.1 1.40621e+07 -228129 100761 -182.759
3 8.34625 -0.783446 -12.6308 96445.6 -114991 1.41354e+07 176145 -11932.7 -1770.1
3 -4.01393 -6.93817 -9.51454 82494.3 -136413 1.42638e+07 171633 28824.5 -184513
3 -3.44035 -7.00834 -11.1289 -92719.6 84106 1.42785e+07 -151791 43239.1 -177252
3 -1.94784 -7.2586 -11.1579 14428.4 -37053.7 1.41858e+07 179063 29061.6 -128298
3 -1.42892 -7.29325 -9.54314 -20951 4592.89 1.42523e+07 -158262 -15597.4 -112855
3 0.0079732 -7.32168 -9.50802 -78290.9 48147.3 1.42174e+07 149214 -37484.9 -44255.8
3 0.631279 -7.16682 -11.0858 20882.9 -67545.6 1.42449e+07 -137600 -36057 -64424.9
3 1.95578 -6.57007 -11.0702 -128276 77363.8 1.4225e+07 87975.6 -51197.5 39524.7
3 2.57471 -6.40925 -9.52109 101557 -85382.9 1.43261e+07 -83447.7 -122620 39272.9
3 -6.8707 -4.96427 -11.0767 -214795 219507 1.41161e+07 19791.7 54385.6 -37139.2
3 -7.32151 -4.52916 -9.50416 208360 -204469 1.4117e+07 -74947.8 55422.8 -35379.6
3 -5.32342 -6.26786 -9.50564 -212493 173793 1.42598e+07 -69902.6 26483.9 -102709
3 -5.77483 -5.87461 -11.1118 212840 -193633 1.42742e+07 51336.6 9706.09 -83469.2
3 3.73601 -5.60664 -9.47933 -111285 105432 1.41367e+07 60748.9 -154379 107097
3 4.20276 -5.29376 -11.0561 153892 -118561 1.42079e+07 -49351.9 -115430 110704
3 5.41441 -4.44626 -11.1013 -128854 149492 1.40501e+07 31875.4 -90720.8 96994.8
3 -8.19799 -2.73666 -11.0514 130999 -177922 1.42262e+07 -180206 120897 -10025.4
3 -7.96711 -3.2496 -9.49658 -152271 178934 1.42115e+07 137229 124793 1621.86
3 5.78011 -4.03668 -9.5113 168146 -173178 1.40667e+07 532.298 -80949.9 105875
3 7.31528 -2.63393 -11.0707 168372 -127871 1.42549e+07 104127 -49172.7 51942.3
3 6.91707 -3.06778 -9.54679 -153406 155532 1.43085e+07 -36718 -13132.4 26018.7
3 -8.42668 -1.33652 -11.0968 -43310.3 -17591.2 1.40635e+07 237568 81699.1 -19756.5
3 -8.47667 -0.724364 -9.50982 -4878.35 -52557.6 1.40784e+07 -238189 108221 -46876.9
3 8.08971 -1.42126 -11.135 -111077 135063 1.41251e+07 -131961 9773 25782.9
3 8.21451 -0.767653 -9.56697 88234.6 -116027 1.41313e+07 186860 36356.2 44574.8
3 -3.43608 -6.99513 -7.90631 -108770 105760 1.42559e+07 -158475 21603.6 -164201
3 -2.04336 -7.24398 -7.93758 40668.8 -36937.5 1.43016e+07 179126 34469.1 -107687
3 0.644393 -7.16248 -7.94185 43593.2 -49961.1 1.42124e+07 -125358 -51313.2 -32145.3
3 1.95538 -6.60555 -7.94602 -79080.5 93359.8 1.43239e+07 104379 -117278 65648.9
3 -6.89201 -4.99379 -7.9025 -219905 181309 1.40834e+07 50827.4 85953.9 -58471.2
3 -5.81136 -5.97179 -7.90778 178598 -225058 1.42778e+07 77313.7 15506.5 -110952
3 4.21368 -5.18017 -7.8849 86823.4 -132210 1.41547e+07 -79802.7 -126840 125145
3 5.42185 -4.38255 -7.90658 -158852 122381 1.41277e+07 1266.3 -107295 92471.8
3 -8.15563 -2.76516 -7.93704 129396 -140521 1.4225e+07 -183905 97811.5 -7579.77
3 7.3589 -2.59872 -7.97564 158028 -209870 1.42856e+07 65531.3 317.655 51791.4
3 -8.34648 -1.29864 -7.92907 -29512.5 38181.8 1.41271e+07 222980 127948 -2141.26
3 7.9388 -1.30235 -7.9784 -120845 78716.5 1.41519e+07 -163702 35491.7 37273.9
3 -5.42627 -6.36749 -6.31462 -210764 174596 1.4246e+07 -81410.1 49557.3 -98153.7
3 -4.06577 -6.86574 -6.35141 101390 -130709 1.42743e+07 177201 41902.4 -155179
3 -1.442 -7.2572 -6.36711 -5092.72 926.386 1.43481e+07 -150265 25768.6 -121590
3 -0.00942194 -7.2413 -6.36018 -68536.9 68623.2 1.4256e+07 155822 -35256.6 -26239
3 2.4848 -6.28454 -6.38403 69114.1 -83319.3 1.42938e+07 -92305 -107202 91394.8
3 -7.1755 -4.56169 -6.3431 196314 -240329 1.41148e+07 -52293.7 76953.3 -71999.8
3 3.69236 -5.52905 -6.38064 -124630 106130 1.41713e+07 35017.8 -119162 135463
3 -7.99435 -3.3051 -6.39971 -160046 126174 1.41399e+07 165877 139202 -46476.9
3 5.91771 -3.9869 -6.41003 149815 -209270 1.41493e+07 -49949.2 -122660 102983
3 7.03257 -3.09339 -6.39377 -193294 122105 1.42237e+07 -78026.6 -39413.9 52661.4
3 -8.28618 -0.750223 -6.3173 -826.816 -8762.4 1.41329e+07 -225678 135060 19367.1
3 8.1035 -0.745032 -6.47251 99808.6 -147795 1.42224e+07 172252 29412 24504.5
3 -5.41745 -6.45802 -3.18151 -213480 207597 1.41661e+07 -45208.5 75121.8 -116807
3 -3.53661 -7.22653 -4.80165 -152683 113935 1.42787e+07 -149575 41964.9 -163947
3 -2.07011 -7.41718 -4.77157 -34416.2 6054.6 1.43695e+07 199033 11359.4 -127678
3 -1.47033 -7.3768 -3.2485 -33978.4 51673.4 1.44217e+07 -167878 -46852.8 -132485
3 -0.00134194 -7.173 -3.2204 -88353.4 109129 1.42732e+07 137542 -64068.4 -3282.44
3 0.609772 -7.11695 -4.81186 48116 -39728.5 1.42978e+07 -126305 -63597.9 -12909.9
3 1.97396 -6.56861 -4.82322 -99520.8 115164 1.42834e+07 86547.3 -119600 108665
3 2.51616 -6.30144 -3.21893 56423 -61635.6 1.42764e+07 -118620 -101652 124444
3 -6.91167 -5.01821 -4.72904 -210534 203095 1.4149e+07 64916.1 64930.9 -52757.9
3 -5.87853 -6.02821 -4.7217 179652 -197751 1.42616e+07 88481.4 51308.5 -97378.8
3 3.74475 -5.59132 -3.23061 -125465 105531 1.41415e+07 7650.73 -158649 153240
3 4.31382 -5.28254 -4.80614 93433.6 -118543 1.41694e+07 -77813.2 -131752 165737
3 5.48885 -4.38337 -4.79744 -165744 109194 1.41722e+07 -20111.8 -136294 107497
3 5.90635 -4.03201 -3.21856 148177 -202478 1.41569e+07 -39866.7 -116494 116739
3 -8.1828 -2.7584 -4.78349 152887 -181226 1.41325e+07 -161320 156117 -19887.5
3 -8.00893 -3.29229 -3.17685 -115015 113921 1.41306e+07 190060 154243 -40578.1
3 7.33181 -2.58837 -4.84952 173134 -223529 1.42044e+07 53347 -44536.9 67997.6
3 6.99696 -3.04999 -3.25245 -179535 118129 1.4189e+07 -87094.1 -47641 46761.8
3 -8.30841 -1.31833 -4.74943 -21877.4 -18169.7 1.40895e+07 225493 145406 -15017.3
3 -8.33473 -0.701443 -3.16339 47270.1 -44907.4 1.40819e+07 -225077 141981 -20733.8
3 8.01294 -1.27798 -4.84843 -134590 55806 1.42545e+07 -166930 24475.2 19764
3 8.17765 -0.739145 -3.24271 105280 -157243 1.42689e+07 175020 45231.9 7320.27
3 -4.10029 -7.0377 -3.21342 101221 -80810.4 1.43353e+07 191957 55626.4 -177287
3 -3.44832 -7.20909 -1.63119 -90689.7 148467 1.43536e+07 -160214 -19002.4 -215972
3 -2.01933 -7.27552 -1.63926 45175.8 -5456.43 1.44331e+07 188452 11270.6 -195949
3 0.599751 -7.177 -1.6278 -4659.85 8164.91 1.42083e+07 -147591 14522.8 -64403.3
3 1.92675 -6.54043 -1.66355 -111148 144153 1.4282e+07 27383.5 -60795.7 100943
3 -7.31495 -4.5918 -3.16137 231972 -232921 1.41769e+07 -22910.4 61489.2 -61086.3
3 -6.96197 -5.06379 -1.61162 -223814 209040 1.41229e+07 86528.3 55004.3 -95780.5
3 -5.92085 -6.0719 -1.65712 168600 -198368 1.41229e+07 109367 39210.8 -133398
3 4.2941 -5.23888 -1.67468 90764.1 -97366.5 1.40931e+07 -122149 -135525 148043
3 5.37944 -4.3158 -1.63327 -130200 118604 1.41319e+07 -36978.2 -110958 104101
3 -8.26051 -2.78805 -1.58076 175600 -165289 1.41185e+07 -148646 108273 -45849.8
1 -3.88813 -2.28015 -1.91307 -198767 730572 -191669 167493 635494 -595901
1 -2.69138 -2.3534 -2.67881 -881387 774676 404693 -356985 31500 -309359
1 -1.56962 -3.13417 -2.23113 994809 -637941 -157410 -303849 382995 640735
1 -0.377076 -2.44923 -2.64385 -469728 675547 127565 544558 -529964 -40075.8
3 7.39604 -2.59683 -1.63767 161877 -229762 1.41641e+07 46403.2 -55070.6 35831.6
3 -8.37821 -1.30623 -1.58242 26063.1 -8709.69 1.40892e+07 238998 111217 -57333
1 -4.52257 -1.04259 -1.78872 603212 -52038 -139826 -364878 -145918 873419
1 -4.01004 0.145028 -2.39854 -34354.3 -81512.5 441993 -899358 -258266 162153
1 -2.87065 0.0631956 -3.24297 668158 -371257 -32046 745896 187707 -499211
1 -2.25005 -1.18559 -3.45876 579093 -345248 -52670.1 720423 -302167 459300
1 -0.744369 -1.25507 -3.37744 -3476.39 -193951 358647 -985040 389193 -53782
1 -0.0505339 -0.0389961 -3.06212 526591 -309926 -124680 -531823 50288.6 -848055
1 1.13494 -0.0607717 -2.25139 -41167.6 -340682 500972 680678 -24933.8 596956
3 8.08137 -1.31765 -1.67274 -133626 69874.4 1.42686e+07 -176888 34519.8 4389.3
3 -3.9636 -6.9999 -0.0663594 135144 -248616 1.43799e+07 127941 10234.6 -152420
3 -1.40967 -7.3652 -0.0270725 17922.5 -96048.1 1.4402e+07 -196429 36400.8 -106574
3 0.0427256 -7.17138 0.000912149 -71644 -43278.9 1.41514e+07 201471 45060 -54601.5
3 2.46218 -6.27593 -0.0679244 33008.9 -67502.8 1.42441e+07 -119738 -15283.8 77921.3
3 -7.27795 -4.57079 -0.0318797 193708 -285435 1.41186e+07 -68108.4 71812.4 -52901.8
3 -5.31068 -6.38212 -0.117067 -244058 190612 1.41409e+07 -104436 19266.9 -65332
1 -1.63051 -3.80956 -1.03137 737014 39698.9 -1.06314e+06 -56738.6 540554 82736
1 -0.502274 -3.78951 -0.153803 -1.15009e+06 -46219.8 914878 775.382 123433 14028.6
3 3.79307 -5.59506 -0.105915 -100125 113301 1.4154e+07 -26421.9 -64058.8 140805
3 5.93 -4.00753 -0.0560508 172609 -197821 1.40899e+07 -55854.1 -74453.8 83378.2
3 -8.00754 -3.31585 -0.0391135 -199223 117365 1.41114e+07 158923 110341 -40555.4
1 -4.71187 -2.17036 0.27478 67328.5 636336 -807302 -411586 446080 203906
1 -3.97788 -3.04269 -0.669338 153544 -889635 652012 445847 -474840 413918
1 -2.81343 -3.78245 -0.22897 -658751 -43902 309738 49097.8 -909472 151811
1 0.778994 -2.4871 -1.85719 362326 695838 -698432 151258 -396426 -527258
1 0.748931 -3.17106 -0.548243 -209889 -724613 1.00072e+06 -653876 93199.3 92310.4
3 6.97197 -3.03583 -0.0417364 -146150 120754 1.42078e+07 -81410.7 -24362.6 30983.7
3 -8.30461 -0.710651 0.0136208 15382.3 -42248 1.4094e+07 -237056 116214 -53678.4
1 -4.96842 -0.945909 -0.401201 -77440.6 -594091 690960 649453 35778 -648251
1 1.51669 -1.25241 -1.64557 240783 -153988 178847 -171831 458860 929395
3 8.38992 -0.760611 -0.114052 119555 -162325 1.41917e+07 176893 48894.3 17821.1
3 -3.45659 -7.14608 1.48725 -98936.2 47742.9 1.43506e+07 -193125 29022.6 -36032.5
3 -1.96626 -7.28434 1.50366 32578.7 -76313.9 1.43801e+07 194900 37365.3 -30879.8
3 0.593816 -7.06058 1.52255 -4313.07 -77216.9 1.41699e+07 -129829 42708.4 82870.6
3 1.87334 -6.40742 1.52058 -138865 117566 1.43084e+07 43196.6 17421.2 109321
3 -6.83809 -5.01972 1.52484 -224031 172427 1.41827e+07 82259.7 81659.5 -7489.77
3 -5.77034 -6.03765 1.46599 164533 -195619 1.41182e+07 120898 9768.2 -33340.5
3 4.26112 -5.16013 1.46235 96503.6 -95407.5 1.42089e+07 -101160 -37282.5 93374.1
3 5.39763 -4.30771 1.50457 -127486 117649 1.40683e+07 -43657.8 -54432.4 56539.7
3 -8.24715 -2.77414 1.5631 124435 -167428 1.41075e+07 -141220 92916.9 -37191.9
1 -4.30505 -2.09607 1.60546 69342 739485 -643808 -509774 -502462 -297733
1 -2.40886 -3.69888 1.12692 -239581 46711.2 109539 112858 996154 -159905
1 -3.1748 -3.02552 2.1225 458475 -802031 610403 390373 494263 -368681
1 -0.919701 -3.74357 1.20104 696665 124130 -835934 -123648 -734097 -161428
1 -0.219715 -3.05057 2.22212 1.01425e+06 -719656 95064 -369877 -490814 -543730
1 1.47275 -2.40819 0.432745 452030 787240 -881109 253353 225815 343896
1 0.872782 -2.31034 1.71996 -256483 689158 -16519.1 693498 579004 -109988
3 7.35524 -2.5657 1.53406 186930 -200807 1.42598e+07 61829.3 -28133.7 -1665.01
3 -8.42158 -1.26552 1.54576 20711.1 -13317.7 1.40824e+07 233719 92183.6 -56630.6
1 -4.23684 -0.85353 2.35103 -7365.34 -327895 590000 712947 -14672.5 615105
1 1.90267 -1.18685 -0.207636 131073 -229923 445007 -319799 -433979 -845168
1 1.94354 0.049462 0.45255 -42944.5 -322260 601921 610521 75617.3 -630553
1 1.41971 0.128185 1.81558 490599 -134490 -160444 -403758 -110111 886975
3 8.1063 -1.3458 1.46721 -122092 96818.1 1.41058e+07 -162037 53486.3 -21306.5
3 -5.39684 -6.28508 3.08614 -237703 218266 1.41583e+07 -28524.6 -30186.2 -27706.2
3 -4.07434 -7.03236 3.08444 73872.4 -87666.2 1.43412e+07 214083 -35407.5 -11464.2
3 -3.47525 -7.11209 4.66201 -203638 141799 1.43199e+07 -133675 -12947.2 -39663.3
3 -2.06189 -7.42292 4.67203 -107958 40396.1 1.42834e+07 224517 34537.3 -26967.6
3 -1.40886 -7.33662 3.11608 -53068.7 55382.8 1.43583e+07 -177779 99917.1 -21959.2
3 0.0262704 -7.13273 3.11741 -134268 133145 1.42305e+07 134485 68007.3 43813.7
3 0.600032 -7.0038 4.69287 17791.7 -8757 1.43301e+07 -152805 32031.4 29487.8
3 2.01526 -6.41883 4.73119 -113059 125385 1.43771e+07 47084.7 3293.25 59155.2
3 2.44464 -6.14058 3.1213 76243 -31564.4 1.43727e+07 -123277 -3262.22 75288.5
3 -7.21135 -4.49582 3.10023 226891 -238865 1.42295e+07 -1031.32 49002.4 -37793.9
3 -6.92726 -4.91978 4.631 -199621 193745 1.43012e+07 99895.5 -7377.48 -28011.6
3 -5.85474 -5.93722 4.61808 178405 -193904 1.41962e+07 118340 -23871.8 -35764.4
3 3.80214 -5.53038 3.05721 -87141.3 102797 1.42225e+07 -9456.71 10940.5 82957.6
3 4.23764 -5.13723 4.67415 99633.3 -96488.2 1.42487e+07 -87291.9 7581.45 81216
3 5.39988 -4.2557 4.6701 -130579 110764 1.41707e+07 -10231.3 -8067.96 38515.7
3 5.85171 -3.91794 3.08198 163338 -169197 1.41104e+07 -40203.1 -35982.4 21120.3
3 -8.30065 -2.80739 4.67787 166481 -198387 1.41929e+07 -133543 7366.54 -70144.9
3 -8.10376 -3.38137 3.1058 -106232 92043 1.41307e+07 211539 35101.9 -50652.3
1 -2.41298 -2.15087 3.06638 -294641 880403 -47422.5 144287 -614359 519972
1 -0.982862 -2.21933 3.12477 -827408 739953 379274 -384712 139927 289126
3 7.00968 -3.05344 3.07843 -142764 138896 1.4298e+07 -62802.1 3720.27 -11671.1
3 7.35781 -2.53474 4.66647 175521 -222258 1.42861e+07 62381.3 6199.69 5408.08
3 -8.21873 -0.751796 3.11831 81188.6 -76957.4 1.4064e+07 -223811 38478 -45708.5
3 -8.32539 -1.342 4.67853 23304 -60299 1.40477e+07 239277 31514.2 -52167.5
1 -3.06013 -0.890217 3.21982 646607 -99446.1 -22653.5 -528530 70744.2 -808485
1 -0.22842 -0.983054 3.2893 470337 -649124 -361464 739288 253042 -622804
1 -0.859207 0.26059 3.47258 424018 -575570 -439872 776900 -349653 544607
1 0.920633 -1.05367 2.39962 -196786 -133148 432489 -932827 -202026 190806
3 8.09719 -1.28382 4.64211 -147293 79660 1.41506e+07 -173292 31052.8 -17326.2
3 8.35559 -0.748682 3.05075 122232 -134389 1.41032e+07 188239 56849 -20020.4
3 -5.33452 -6.25648 6.15958 -234824 225688 1.41709e+07 -32151.9 -1215.31 -36661.7
3 -4.05074 -6.93782 6.2202 89234.3 -96049.1 1.43133e+07 206513 9508.05 -26442.7
3 -1.44967 -7.48383 6.22175 -93268.1 55480.9 1.42821e+07 -182451 29933.8 -19483.2
3 0.0126484 -7.26114 6.25736 -152877 122301 1.4315e+07 131876 6791.88 7067.66
3 2.41601 -6.02471 6.28386 65472.5 -42908.1 1.433e+07 -101542 26853.6 47525.3
3 -7.38658 -4.6128 6.24774 229597 -215766 1.4337e+07 -22519.1 21943.8 -4996.75
3 3.74921 -5.3865 6.28015 -87616.8 92426.5 1.42241e+07 1401.05 397.19 83914.8
3 5.88201 -3.87288 6.2465 170755 -194125 1.41351e+07 -46571 -14441.5 48414.1
3 -8.04002 -3.31668 6.28443 -118576 121345 1.42186e+07 199269 28875.3 -26503.8
3 6.91182 -2.86275 6.27741 -148442 124903 1.42614e+07 -68946.2 9791.01 15018.8
3 -8.30499 -0.745884 6.2821 46034.1 -133632 1.40473e+07 -227673 38730.2 -29105.6
2 -1.27869 -0.869396 6.77469 232517 -79087.3 -322098 -890788 431114 540619
2 -0.467851 0.263865 7.06432 10481.6 -249234 -491877 -908484 -304259 -367224
3 8.35503 -0.764661 6.24291 115046 -178511 1.41919e+07 177743 44004.3 -30010.2
3 -3.43415 -7.03477 7.78366 -149279 155111 1.42192e+07 -145113 22138.5 -44813.7
3 -1.99954 -7.48957 7.81767 -32899.4 53236.8 1.42654e+07 218864 49517.8 -38171.9
3 0.58423 -7.09576 7.79948 34137.6 9860.6 1.43394e+07 -149336 2612.5 -39441.1
3 1.87403 -6.42273 7.81738 -103987 140250 1.42301e+07 40278.9 3479.43 17230.5
3 -6.92146 -5.04238 7.84198 -193606 195149 1.43172e+07 102345 23313.6 -14024.1
3 -5.80792 -6.00893 7.76727 177272 -193248 1.41385e+07 126509 -1193.76 -34058.7
3 4.25183 -5.10504 7.79905 88544.5 -90774.6 1.42435e+07 -109258 14508.1 67206.2
3 5.44319 -4.26504 7.79188 -117445 97496.5 1.41785e+07 -40416.7 4398.91 43791.7
3 -8.23041 -2.76564 7.86 181039 -186926 1.41789e+07 -142795 6971.17 7659.84
2 -3.16293 -2.1041 7.5807 -504696 922491 -88564.4 -384414 682498 -153372
2 -1.97369 -2.9031 7.69951 973046 -682274 28681.5 -29281.3 -326400 657346
2 -0.846334 -2.21206 7.17637 -596207 553463 446425 583047 127965 -370982
2 0.411555 -2.40599 7.78325 -358461 712776 33786.2 -49466 -617828 -381287
2 0.540948 -3.35778 8.94995 226695 -644898 419625 -577833 697222 427180
3 7.37845 -2.48521 7.83361 191144 -207690 1.41981e+07 61662.1 24225.6 13750.8
3 -8.29536 -1.33217 7.78072 35038 -33065.5 1.40598e+07 228882 20711.6 8247.45
2 -2.70367 -0.749493 7.02858 208111 -392208 521891 790395 -303860 -48234.5
2 1.23013 -1.24634 8.10706 737222 -368808 -171664 357558 188942 836893
2 1.90508 -1.46155 9.40788 -325050 -56037.7 662971 -742200 -15157.3 -484836
2 0.827271 0.0380288 7.81671 185727 -614612 266811 877366 196450 40268.7
3 8.07034 -1.22412 7.81613 -146286 105474 1.41864e+07 -171868 46138.8 954.702
3 -5.26857 -6.32336 9.37918 -271037 192095 1.4161e+07 -66096.4 -7382.36 -33872.6
3 -3.97108 -6.8958 9.37161 72839.8 -221700 1.41306e+07 175856 -20758 -36074.2
3 -1.41173 -7.37102 9.41655 61840.2 -76536.6 1.42659e+07 -186097 -2001.19 -60474.2
3 0.0171974 -7.20824 9.41442 -24314 -13298.4 1.43637e+07 212943 54096.1 -27433.1
3 2.49116 -6.19376 9.38295 25908.6 -56423.2 1.42152e+07 -116998 42336.2 1285.53
3 -7.24498 -4.60937 9.39503 200764 -237380 1.42728e+07 -73543.3 6000.62 -49372.5
3 3.7821 -5.55029 9.33991 -103018 101360 1.42561e+07 -18408.7 34356.2 31060.4
3 5.87047 -3.86163 9.36921 186689 -189963 1.42415e+07 -52176.6 22183.8 15991.9
3 -7.98907 -3.34016 9.41784 -173521 124510 1.41048e+07 170006 -43345.3 -5653.78
2 -4.02271 -3.03511 9.64802 -151592 -1.06164e+06 944637 487351 37194.7 41361.6
2 -1.90207 -3.81414 8.76786 536666 79621.5 -797674 -87966.6 -671724 169943
2 -2.9338 -3.86816 9.81722 -1.13328e+06 -87885.6 942537 284836 179661 -38308.3
2 -0.609566 -4.01062 9.38797 -324368 -129486 -35203.3 6199.39 1.05586e+06 -67790.8
2 1.42447 -2.76422 9.93379 289549 589400 -587135 487582 -506641 285759
3 7.00836 -2.94788 9.37271 -155376 124894 1.42151e+07 -66150.5 24771.4 5306.43
3 -8.33188 -0.812448 9.39954 8.17019 -66514.6 1.40684e+07 -221258 -23897.8 -24725.8
2 -4.16101 -2.15037 8.5316 174816 584061 -868295 -212971 158689 -539561
2 -4.73502 -0.907153 9.03201 16238.3 -428733 317329 188946 -244844 976395
2 2.04639 -0.371029 10.319 284116 -283028 320521 -549.467 274405 -942873
2 1.83242 -0.51276 11.7584 224030 -186858 275400 181416 -253685 921888
3 8.32083 -0.68711 9.37361 133088 -165268 1.41845e+07 179154 39672 6792.81
3 -5.31536 -6.32468 12.523 -174719 224681 1.44117e+07 -70555.7 35109.3 26777.9
3 -3.95237 -6.91873 12.5463 136521 -102193 1.42469e+07 178565 -21586.1 97262.5
3 -3.44193 -7.10004 10.9518 -117626 613.251 1.41675e+07 -197901 -50849.9 103777
3 -2.01516 -7.42053 10.9436 18749.4 -139015 1.42384e+07 206931 -49961.1 65387.2
3 -1.40905 -7.2733 12.5493 -85134.3 38464.1 1.41135e+07 -178106 47331.1 86752
3 0.0724581 -7.26785 12.5272 -141358 69562.6 1.42165e+07 142995 43520.1 102958
3 0.628146 -7.06167 10.9706 23379.7 -100013 1.4264e+07 -98836.9 100316 80892.7
3 1.98806 -6.46169 10.9374 -118867 119651 1.43063e+07 70752.4 104454 30989.7
3 2.45746 -6.05417 12.4977 61569.4 -46335.1 1.43006e+07 -113924 93721.9 70936.1
3 -6.83649 -5.02704 10.9641 -248454 171924 1.41421e+07 21363.3 86445.8 -48089.3
3 -7.34162 -4.67916 12.5652 193421 -250823 1.40417e+07 -18538.2 28835.9 20130.8
3 -5.78738 -6.04366 10.9803 178812 -232031 1.42768e+07 52145.9 90612.3 -31455.8
3 3.79414 -5.42102 12.4674 -73975 109925 1.42632e+07 -13932.8 105716 5483.19
3 4.30391 -5.0989 10.8945 97923.5 -92637.4 1.42547e+07 -124388 48283.5 8168.59
3 5.44811 -4.15539 10.9397 -98643.8 93492.2 1.42918e+07 -45752 65341.5 1813.26
3 5.89333 -3.81644 12.5209 187651 -192925 1.43377e+07 -52459.4 56011.6 -30320.8
3 -8.17698 -2.8364 10.9917 104463 -203638 1.40863e+07 -177515 -16226.5 45963.8
3 -7.91101 -3.34786 12.5962 -123125 99161.5 1.41139e+07 212070 -4953.17 47617.7
2 -2.23945 -4.0516 11.0409 840619 99004.6 -962235 -84040.9 411836 -268131
2 -2.80134 -3.54077 12.22 1.15432e+06 -744197 6633.04 -173523 174376 -606743
2 -3.89804 -2.63834 12.1247 -659543 990942 74067.7 -438806 -550014 103787
2 -0.842825 -4.24474 10.7826 -590071 17628.2 322418 19907.5 -908487 59231
2 1.18469 -2.90177 11.3093 462546 574755 -684511 454549 273400 -431829
2 0.0228031 -3.64075 11.7149 71929.3 -627962 703565 -622730 -514793 -223675
3 7.39127 -2.47088 10.9459 183716 -208374 1.41943e+07 57632.5 64916.2 -8433.52
3 6.98262 -2.86539 12.5225 -166949 128211 1.41515e+07 -83039.3 72731 -14332.2
3 -8.36767 -1.37758 11.0021 -93487.8 -24183.3 1.41284e+07 227250 34732.9 -2476.49
3 -8.31557 -0.798046 12.5349 48646.5 -70632.7 1.42227e+07 -211107 48927.2 -31050.6
2 -4.95661 -1.07415 10.4398 175120 -319382 388410 31567 253210 -951686
2 -4.53501 -2.41751 10.8876 238309 840847 -833655 -169163 -361652 425988
2 1.40207 -1.80566 12.2018 -250597 42349 533426 -616496 234154 644027
2 0.399559 -1.87723 13.2794 657851 -340811 64913.5 199259 -348475 -820336
3 8.11715 -1.22141 10.9771 -121566 101106 1.42171e+07 -160118 65785.5 6754.31
3 8.48093 -0.700181 12.5274 124154 -159940 1.42525e+07 186227 56049.1 -32734.7
3 -3.41938 -7.06228 14.1278 -193235 154962 1.42568e+07 -134136 21590.7 6494.63
3 -1.98234 -7.31108 14.1465 -87529.5 40831.1 1.41049e+07 221091 38448 49929.8
3 0.637701 -7.15891 14.1082 1806.93 -1067.12 1.42432e+07 -150952 35476.1 52832.6
3 2.01536 -6.56459 14.0585 -118087 140756 1.42678e+07 33055.7 94200.3 25656
3 -6.97353 -5.19872 14.1434 -203022 173007 1.40219e+07 117180 -39.2131 -18042.7
3 -5.76371 -6.09367 14.1176 180784 -201464 1.4481e+07 126066 -16683.7 -10370.1
3 4.28186 -5.08023 14.0676 123309 -92418 1.42874e+07 -81140.3 99076.5 -18774.5
3 5.37094 -4.15827 14.1068 -97675.8 110293 1.43716e+07 -9891.78 57339.5 -8329.62
3 -8.13896 -2.81625 14.1389 181041 -181542 1.41441e+07 -139261 -12094.3 3592.09
2 -1.87903 -2.99225 13.1671 -631274 461720 362002 696691 30546.6 188751
2 -0.523056 -3.01285 12.8717 -137129 810125 -255358 123284 668070 294203
3 7.27363 -2.40918 14.1102 197749 -207744 1.41855e+07 64619.4 51510.3 -18819.3
3 -8.213 -1.36124 14.098 35373.8 -22995.9 1.43469e+07 229288 -2643.14 7196.31
2 -3.69887 -1.54526 13.0183 246228 -532328 152613 858164 226716 19975.3
2 -2.47411 -1.74683 13.6525 17102 -290058 -385353 -945630 -294729 -418410
2 -1.62952 -0.658051 13.8834 122596 -156420 -473193 -863097 391892 505754
2 -0.205398 -0.679802 13.6543 80970.7 -491617 436608 809668 -272014 -70834.3
3 8.10978 -1.17981 14.1069 -136642 112281 1.42812e+07 -157014 57781 -32337.3
3 -4.00135 -6.9447 15.6979 20767.6 -104733 1.42143e+07 237512 -2904.22 -7188.32
3 -1.41006 -7.27512 15.658 -95621 62931.3 1.41216e+07 -181131 36149.4 47015.1
3 0.0410049 -7.18306 15.6334 -157712 124704 1.42448e+07 122119 32736.3 21741.3
3 2.59732 -6.27139 15.6283 58433.8 -42992.5 1.42607e+07 -116284 90713.4 21394.2
3 -7.33588 -4.71343 15.7418 215372 -267806 1.40592e+07 -3685.42 -17904.6 -19740.9
3 -5.34359 -6.44842 15.7773 -278232 216235 1.44788e+07 -10797.9 -31297 -17058.2
3 3.87038 -5.56123 15.6058 -79406.4 96727.6 1.43947e+07 5814.06 121852 -7584.03
3 5.78684 -3.76889 15.6772 185117 -159240 1.43812e+07 -23136.9 69799.7 -30461.2
3 -8.01905 -3.42265 15.7104 -127891 74925.7 1.41429e+07 208033 699.841 -21007.3
3 6.9093 -2.87088 15.6712 -135335 154134 1.41716e+07 -43574.3 76784.7 -45250.2
3 -8.2164 -0.749888 15.6604 57872.6 -78672.6 1.43314e+07 -216584 4201.66 23929.5
3 8.376 -0.662244 15.7068 126031 -134963 1.42224e+07 189295 43588 -40070.7
3 -4.03921 -7.01381 18.8134 108478 -149943 1.42097e+07 175659 36654.4 -64248.1
3 -3.36802 -7.09448 17.23 -207501 167296 1.42212e+07 -121944 -9334.2 -19939.1
3 -1.95251 -7.34013 17.2108 -119792 52049.5 1.40648e+07 213409 20392.6 11251.9
3 -1.39208 -7.39081 18.8085 -51253.5 -38167.4 1.40507e+07 -182462 14819.4 -23532.2
3 0.0325167 -7.21755 18.8359 -123878 51838.3 1.42046e+07 157232 63502.7 -39752.2
3 0.579781 -6.95399 17.2221 -16112.5 -4308.01 1.42137e+07 -158521 51935.1 -3483.13
3 1.99621 -6.48063 17.165 -157513 125574 1.42009e+07 26484.4 42540.5 28385.5
3 2.50719 -6.37693 18.7584 65254.8 -25911 1.41809e+07 -115275 40312.6 -4903.25
3 -6.91564 -5.1867 17.327 -210697 195353 1.39976e+07 126278 -3736.95 -25809
3 -7.3185 -4.73239 18.8803 231574 -232501 1.40513e+07 -28932.3 -29108.2 -79288.8
3 -5.37411 -6.4688 18.8319 -206862 238281 1.44558e+07 -64486.8 -28756.7 -39650.5
3 -5.88302 -6.20647 17.265 190661 -188758 1.44902e+07 130299 -4883.27 -27890.6
3 3.68168 -5.45362 18.7708 -62027.7 111512 1.43455e+07 -8481.14 43305 2189.13
3 4.29907 -5.14942 17.2046 169884 -80261.4 1.43785e+07 -66684.2 78330 11533
3 5.44378 -4.23775 17.2011 -87924.7 136000 1.43442e+07 8373.45 63112.8 -20397.2
3 5.87207 -3.89119 18.8287 191961 -153606 1.4392e+07 -36843.9 65760.2 -31021.1
3 -8.14887 -2.87606 17.23 186587 -218485 1.41301e+07 -135983 6996.01 -58383.2
3 -7.97606 -3.42961 18.8041 -136307 126575 1.41213e+07 182882 -24698 -68932.1
1 -4.32471 -1.65743 17.9677 -218044 963801 -291688 -536414 657254 152660
1 -3.23601 -2.5087 17.524 850891 -840463 341532 137267 -434135 480701
1 -2.32968 -1.72767 16.7294 -641221 709824 96196.7 448320 414176 -372983
1 -0.550454 -3.15596 17.6197 585377 -689126 424457 -572614 589378 339341
1 -0.985687 -2.13803 16.7156 -688701 817309 75195.6 -12254.2 -581659 -282162
1 0.732738 -2.7057 18.1791 209917 594411 -387868 687345 -517186 370327
3 7.36484 -2.42391 17.2485 210226 -197579 1.41186e+07 78337 77793.1 -14129
3 7.0384 -2.99029 18.8273 -129996 131365 1.40744e+07 -65770.1 62946.4 -18160.7
3 -8.24239 -1.40125 17.188 32228.8 -74154.5 1.42207e+07 228473 -36146.3 -37370.5
3 -8.15683 -0.780609 18.7651 58033.6 -78354.2 1.41397e+07 -213552 -69602.9 -23992.7
1 -4.06643 -0.324314 17.467 144107 -313860 478594 831338 -95673.5 -419994
1 -2.86448 -0.408392 16.7109 379249 -263881 -257616 -782700 225594 632135
1 -0.0539644 -1.05128 16.84 733004 -638404 -96201.5 476527 52590 715813
1 0.988668 -1.35656 17.6828 -371066 111731 497205 -805302 -39362.8 -447870
1 1.68854 -0.419012 18.5072 382929 49208.8 -157340 -164551 228428 -946787
3 8.38434 -0.655868 18.9132 128695 -89869.4 1.43113e+07 199440 33694.1 -74537.2
3 8.12973 -1.20665 17.3046 -131623 136227 1.42308e+07 -141783 53841.5 -9955.82
3 -3.43742 -7.06728 20.4026 -95221.1 -9457.84 1.42397e+07 -213782 64104.1 48070
3 -1.9868 -7.26383 20.4024 25417.5 -129282 1.40672e+07 196919 76140 41235.7
3 0.575771 -7.14592 20.345 25487.6 -219871 1.42354e+07 -77230.5 13694.7 57882.8
3 2.03004 -6.70855 20.341 -141143 70524.1 1.4223e+07 116575 56775.6 13442.3
3 -6.93743 -5.10753 20.445 -272225 180328 1.40726e+07 20920.9 -27007.1 -37610.1
3 -5.88129 -6.08967 20.4543 195807 -270868 1.44538e+07 40731 -4167.77 -20665.9
1 -1.11108 -4.17617 19.7974 -977998 -123741 636589 149596 -705062 -9082.76
3 4.27285 -5.21261 20.3861 155263 -76194 1.42546e+07 -80630.8 68400.5 -25312.7
3 5.47363 -4.29899 20.342 -68493.4 142844 1.44289e+07 -6041.86 100305 -48198.9
3 -8.06565 -2.81167 20.383 124489 -181751 1.41101e+07 -184896 2876.04 -57828.8
1 -4.4268 -2.85152 20.1097 -83308.5 -1.0272e+06 853803 408826 276845 -353487
1 -4.90084 -1.81214 19.2282 220708 692878 -1.03704e+06 -260974 -96159.7 -209898
1 -3.39969 -3.71984 19.6489 -1.08375e+06 -62723.2 807124 175008 512447 -158622
1 -2.8907 -3.63413 18.3229 467090 110733 -431008 102746 -936827 316846
1 -1.46404 -3.92147 18.3856 241981 113489 -338932 -157132 1.02243e+06 66964.6
1 1.06211 -3.0359 19.5297 533983 694700 -1.00523e+06 348770 195207 -169970
3 7.28328 -2.5113 20.4314 202376 -180417 1.40687e+07 91698.8 78479.6 -43552.1
3 -8.28052 -1.38331 20.3512 -97395 -20935.5 1.41017e+07 218963 -20631.9 -50971.3