ITEM: TIMESTEP
40000
ITEM: NUMBER OF ATOMS
2928
ITEM: BOX BOUNDS pp pp pp
-2.3125628165411204e+01 2.3125628165411204e+01
-2.3677137448511118e+01 2.3677137448511118e+01
-1.1760625200000000e+01 1.2209226120000000e+02
ITEM: ATOMS type x y z f_avestress[1] f_avestress[2] f_avestress[3] f_avestress[4] f_avestress[5] f_avestress[6]
3 -5.60847 -6.60766 -10.4128 214512 -258528 1.07785e+07 98351.4 59533.2 40436.4
3 -3.23365 -7.85625 -10.4244 -149281 121832 1.07833e+07 -196907 36193.3 28851.8
3 -1.78116 -7.98145 -10.3746 -25057.5 -8426 1.07589e+07 226085 28699.8 -12564.2
3 -1.11151 -8.02427 -11.854 -7020.93 -21164.1 1.0777e+07 -202931 21752.2 -16309.9
3 0.732731 -7.4081 -10.3522 42950.3 -106345 1.07935e+07 -152415 43274.9 -32636.3
3 0.239318 -7.61979 -11.877 -117899 109218 1.08397e+07 157943 13960.2 -47875
3 2.03597 -6.81707 -10.325 -184574 123654 1.08489e+07 70263.2 27444.1 -76595.5
3 -6.63172 -5.62427 -10.3868 -268877 231337 1.07823e+07 90042.4 83305.1 43455.2
3 4.27946 -5.30219 -10.3873 134742 -138946 1.08606e+07 -32767.7 53290.7 -56430.2
3 -7.80384 -3.23359 -10.3338 111043 -150356 1.079e+07 -186666 39979.2 66814.7
3 5.31042 -4.31096 -10.4363 -132151 124310 1.0872e+07 -14912.8 28757.3 -26006.6
3 -8.03789 -1.80947 -10.3781 -3570.18 -26098.2 1.08181e+07 230321 21866.7 53175.8
3 6.74475 -2.15684 -10.4339 134028 -158197 1.08481e+07 102821 -35788.1 -8994.15
3 7.31629 -0.830039 -10.4367 -103039 98217.2 1.08558e+07 -159631 -36367.2 -7087.45
3 -5.08443 -6.97489 -8.94217 -246984 214448 1.07864e+07 -82049.8 61978.8 49370.8
3 -3.80903 -7.68344 -8.89206 107449 -151077 1.07792e+07 205553 47803 45069.9
3 -1.20895 -8.06636 -8.89205 -29561.3 -11872 1.0747e+07 -211955 40913.6 -21715.6
3 0.194469 -7.75047 -8.8982 -132413 78949.9 1.08071e+07 157394 58443.2 -36030.5
3 -6.98682 -5.09144 -8.93923 208195 -282117 1.07526e+07 -58829.8 66386.2 70513
3 2.66072 -6.59246 -8.93393 84919.1 -127139 1.08322e+07 -94804.9 29367.6 -48041.8
3 3.81217 -5.73897 -8.99204 -160914 124863 1.08501e+07 11644.3 16822.3 -67128.5
3 5.33251 -4.28218 -7.44571 -134346 112323 1.08429e+07 -32847 -20657.8 -29765.9
3 -7.58975 -3.78403 -8.99106 -168671 85643.6 1.07812e+07 224684 47400.8 56602.3
3 5.73479 -3.84426 -8.8618 155955 -143114 1.0875e+07 23214.3 -2894.63 -11445.6
3 6.54055 -2.60563 -8.8951 -129950 133636 1.08613e+07 -85528.3 -31890.6 5035.56
3 6.87392 -2.12034 -7.43041 138288 -160424 1.08672e+07 107512 -47450.6 19377.2
3 -7.87687 -1.15604 -8.9206 -13778.9 -28575 1.08206e+07 -204201 17506.3 56137.4
3 7.40957 -0.172561 -8.94163 82201.1 -105576 1.085e+07 170556 -37107 4337.46
3 -5.56312 -6.53114 -7.40475 213468 -259860 1.07708e+07 95957.7 46792.2 64498
3 -5.12314 -6.9668 -5.98934 -255488 188598 1.07273e+07 -69236.4 67965.4 34832.4
3 -3.84012 -7.67116 -6.02545 91858.3 -149513 1.07746e+07 214419 40309.7 14545.7
3 -3.26233 -7.90904 -7.41814 -134408 102056 1.07622e+07 -184634 51547.7 27241.3
3 -1.81126 -8.02884 -7.46978 -29593.9 3975.42 1.07579e+07 229372 52236.6 -27379.4
3 -1.18064 -7.98368 -6.03415 -9854.65 -11341 1.07666e+07 -219875 31578.9 -18414.5
3 0.836032 -7.48124 -7.48616 67775.3 -75416.8 1.08348e+07 -137683 29066.6 -60802.7
3 0.223104 -7.69454 -6.02564 -123587 89400.8 1.08329e+07 164242 25635.2 -65852.9
3 2.13593 -6.89759 -7.52745 -148331 126775 1.08588e+07 97225.7 46470.8 -58063.5
3 2.66737 -6.58678 -6.06379 107196 -119659 1.08535e+07 -78837.1 25216.9 -54818.9
3 -7.00856 -5.07503 -6.07756 206704 -289425 1.07361e+07 -55242.3 59395.8 74987.8
3 -6.59769 -5.54677 -7.43957 -263579 217754 1.07502e+07 82261.1 66395.6 66492.9
3 4.32042 -5.33717 -7.48359 127744 -150324 1.08602e+07 -36194.8 -92.9316 -46923.6
3 3.81307 -5.7306 -6.08804 -140300 144884 1.08896e+07 23729.7 5747.9 -28227.4
3 -7.81438 -3.15752 -7.45813 118083 -180218 1.07714e+07 -179803 37565.6 63339
3 -7.75221 -3.78647 -6.05343 -170404 89005.3 1.08128e+07 226421 30871.4 68648.9
3 5.79848 -3.85428 -6.016 142924 -166407 1.08219e+07 3229.86 -68359.8 -12376.7
3 6.59092 -2.68244 -5.99124 -130387 95498.3 1.08611e+07 -104767 -77829.1 13079.9
3 -8.00297 -1.74785 -7.48962 -16820.2 -48129.4 1.08254e+07 224886 6285.48 46818.5
3 -7.99244 -1.07626 -6.02481 -13764.2 -69514.7 1.08122e+07 -213038 1179.7 61234.6
3 7.44463 -0.78 -7.42555 -99146.5 77076 1.08539e+07 -154328 -31092.5 2205.63
3 7.63094 -0.193336 -5.92049 102455 -144241 1.08461e+07 171665 -48191.7 20733.3
3 -5.65062 -6.59605 -4.57746 173068 -281291 1.07315e+07 125742 55738.6 44702.6
3 -3.24779 -7.84459 -4.57264 -170835 107839 1.07338e+07 -174181 56390.8 11767.8
3 -1.82907 -7.9926 -4.55922 -58896.1 4277.89 1.0743e+07 236419 14525.6 -27703.3
3 0.86578 -7.53441 -4.56575 67274.5 -81222.2 1.08506e+07 -149203 14687.5 -53939.4
3 2.11807 -6.9005 -4.53414 -160360 141084 1.08646e+07 75178.1 16410.7 -56144.8
3 -6.61246 -5.47245 -4.52138 -290706 189579 1.07363e+07 119617 72838.1 71958.4
3 4.25738 -5.27364 -4.58933 140548 -138639 1.08891e+07 -35826.6 -30850.3 -3197.48
3 5.25065 -4.20156 -4.54149 -128914 128768 1.08681e+07 -28249.6 -77197.8 23855.5
3 -7.86563 -3.15104 -4.62077 126808 -191460 1.08245e+07 -174722 55589.4 76140
3 -8.08713 -1.74059 -4.62919 -10285.2 -53151.2 1.07917e+07 221934 1126.93 42733.7
3 6.83794 -2.11528 -4.58432 144661 -168665 1.08651e+07 101810 -95838 40851.4
3 7.36863 -0.759886 -4.52661 -92178.8 59067.7 1.08293e+07 -152106 -58310.4 5547.41
3 -5.61871 -6.5168 -1.64871 214328 -224522 1.07453e+07 109370 69485.3 71499.4
3 -5.18055 -6.94401 -3.08933 -260377 210355 1.0753e+07 -52485 62702.8 75263.8
3 -3.87606 -7.67916 -3.07193 84566.7 -145217 1.0712e+07 219586 45975.9 18661.2
3 -3.26535 -7.9118 -1.56474 -161849 158239 1.07137e+07 -166172 37813.4 21973.3
3 -1.82426 -7.95946 -1.59627 -46661.2 38916.9 1.07706e+07 234862 14916.7 -30203.7
3 -1.22367 -7.9215 -3.07893 -66533.3 10671.2 1.07532e+07 -214257 2193.61 -26177.5
3 0.167115 -7.63026 -3.09469 -167208 126419 1.08537e+07 152337 -5238 -65768.4
3 0.850918 -7.50884 -1.68732 25683.1 -46956.6 1.08245e+07 -182025 9125.33 -66901
3 2.20308 -6.9503 -1.68293 -193679 165282 1.08749e+07 34265 -15834.8 -54670.7
3 2.6572 -6.58734 -3.14371 96265.6 -131596 1.08899e+07 -109083 4887.38 -52120.5
3 -6.96173 -4.96252 -3.12401 215207 -287862 1.07261e+07 -32229.7 91027.9 62391
3 -6.56112 -5.45199 -1.65707 -235862 236553 1.07297e+07 112552 87220.7 85746.5
3 3.73987 -5.65058 -3.11999 -158290 140529 1.08987e+07 -9145.56 -63591.9 9980.84
3 4.1995 -5.22246 -1.6253 145149 -129118 1.08892e+07 -59687.8 -78138 -995.731
3 5.24869 -4.2759 -1.63527 -116898 113157 1.09144e+07 -48867.6 -134979 45236.6
3 -7.70019 -3.69849 -3.16688 -157665 67764.1 1.07553e+07 233886 74691.3 48808
3 -7.90311 -3.11578 -1.74746 166659 -205721 1.07327e+07 -155133 68570.3 70843.2
3 6.59724 -2.67922 -3.1151 -122830 117401 1.08435e+07 -86442.9 -130008 8611.27
3 5.62829 -3.71168 -3.06825 148839 -135225 1.08927e+07 16678.8 -114351 33721.9
3 6.94066 -2.17529 -1.6778 152610 -175024 1.08949e+07 92931.8 -126954 19260.1
3 -8.08578 -1.06358 -3.22321 4983.24 -58552.9 1.07846e+07 -208372 -303.952 48989.2
3 -8.15271 -1.72209 -1.77227 37701.4 -64838.4 1.07799e+07 234058 5807.16 34392.2
3 7.5477 -0.256314 -3.10325 106519 -107490 1.08411e+07 175764 -62481.7 -15900
3 7.5683 -0.852304 -1.66847 -79009.1 65239.1 1.08568e+07 -150843 -72988.3 -7807.51
3 -5.09504 -6.95153 -0.0997151 -233654 250532 1.07327e+07 -26206.4 60663.9 22103.7
3 -3.79549 -7.56537 -0.129893 102962 -86101.3 1.07223e+07 236858 39334.4 -1570.66
3 -1.15899 -7.91451 -0.168515 -44990.9 64393.9 1.07631e+07 -211602 8985.7 -77622.3
3 0.238764 -7.68896 -0.176026 -150536 159010 1.07907e+07 154502 19562.5 -90089.4
3 2.70253 -6.59636 -0.139859 110507 -101444 1.0862e+07 -126931 -26010.5 -60496
3 -6.88053 -4.94004 -0.237505 254322 -253290 1.07218e+07 -10862.9 61433.7 103229
3 3.76833 -5.63586 -0.173192 -135787 163713 1.08673e+07 -29129.4 -78186.8 -11614.2
3 -7.59617 -3.70059 -0.26849 -104679 87518.2 1.07246e+07 233601 56254.9 52496.7
1 -3.84148 -2.29968 0.968712 46595.9 216869 79437.8 -887797 196019 492288
1 -2.61179 -2.78357 0.245602 636125 -716826 331795 691796 -200377 -219479
1 -1.90618 -3.80079 0.853974 532562 118814 -269088 603889 -762696 338417
1 -0.420274 -3.72623 0.826804 332722 -56945.1 18903 -609555 791422 321657
1 0.272935 -2.70051 0.197869 707172 -879008 429664 -423318 312044 -298357
3 5.67185 -3.82674 -0.238506 156803 -125286 1.0861e+07 -1536.77 -119475 43532.4
3 6.64907 -2.74777 -0.191551 -89711.7 106794 1.08746e+07 -88222.1 -108791 19982.9
3 -8.10363 -1.04939 -0.326557 76126 -60929 1.0739e+07 -210652 -28225.8 33449
1 -3.91493 -0.855116 0.823581 -252342 502866 -11535.6 811253 389678 -438703
1 -1.93609 -1.6191 -0.201468 -882207 1.02432e+06 55242.1 -154918 430320 66092.2
1 -2.68286 -0.497412 0.143434 780780 -846665 343791 -467939 -233445 133643
1 -0.544472 -1.61382 -0.271161 -632370 938808 -200297 -124060 -614244 5111.85
1 0.111251 -0.368946 0.0373068 496323 -827608 478654 572570 268156 250325
1 1.44322 -2.10113 0.876277 -63993.2 365196 15941.3 711076 -290671 664942
1 1.32049 -0.671072 0.750744 83591.9 241406 -200506 -772969 -285845 -659350
3 7.69929 -0.277035 -0.208368 108672 -139493 1.07981e+07 168332 -70313 16762.1
3 -5.42674 -6.39729 1.27324 168735 -266908 1.06668e+07 165894 19687.6 31961.4
3 -4.96757 -6.84059 2.77746 -295606 203251 1.06534e+07 -39954.7 257.503 65574.7
3 -3.74307 -7.48081 2.79176 66933.2 -139963 1.07044e+07 228527 -32920.2 997.251
3 -3.07565 -7.62471 1.28531 -178025 153249 1.07577e+07 -169593 5904.82 -14787
3 -1.70452 -7.99152 1.26743 -52411.8 -3914.73 1.07682e+07 226768 8576.3 -99719.2
3 -1.08273 -7.89175 2.68086 -15759.6 -110966 1.07938e+07 -243666 -8134.23 -34860.4
3 0.332812 -7.77629 2.67534 -157143 45913.3 1.07626e+07 220439 -13625.2 -69507.4
3 0.885975 -7.50085 1.2456 60354.3 -110321 1.078e+07 -153029 2671.53 -122596
3 2.19864 -6.98452 1.19548 -172268 147944 1.08284e+07 79847.3 -7308.3 -74472.9
3 2.74328 -6.70843 2.72541 124522 -198601 1.0822e+07 -73787.2 -26424.8 -57770
3 -6.72156 -4.85026 2.71431 225441 -287141 1.06858e+07 -23377.6 67872.5 19301.1
3 -6.43113 -5.38058 1.25397 -264266 183006 1.06619e+07 160161 40098.6 33246.1
1 -1.04921 -4.71555 2.84304 945641 -315496 -844512 26228.9 180637 627033
1 -2.27377 -4.40028 2.07606 -906246 421738 716673 -283799 340940 -270714
1 0.0585391 -4.23516 2.08458 -781923 367925 430820 232597 -654749 -215577
3 4.19028 -5.21145 1.25356 121351 -139137 1.08279e+07 -47017.7 -53693.2 -32744.7
3 3.85461 -5.78239 2.69048 -190174 135679 1.08385e+07 26541 -58947.4 -7650.87
3 5.18493 -4.18201 1.25849 -80747.2 109831 1.08054e+07 -66757.9 -116294 -2047.44
3 -7.73854 -3.07395 1.21143 156302 -186591 1.07186e+07 -161233 31418.7 31882.3
3 -7.46454 -3.62839 2.69033 -162317 64072.1 1.06954e+07 218497 61951 -8561.62
1 -4.17584 -2.81517 2.22785 518778 582969 -865370 -316849 -112620 544516
1 -3.44733 -3.97789 2.74125 -138039 -39800.6 418730 321796 592870 -730625
1 1.17395 -3.72291 2.67576 121587 -211067 62084.9 -90899.4 -505684 -823927
1 1.9421 -2.66148 2.07931 389284 585202 -667244 144983 370979 698182
3 5.71252 -3.78498 2.69052 165207 -184270 1.08156e+07 -38677.9 -74629 4318.89
3 6.59387 -2.64392 2.67434 -77905.2 58868.4 1.08364e+07 -123167 -86267.5 16368.1
3 -8.14201 -1.6461 1.1701 11813.5 -52989.8 1.07283e+07 236869 -43177.4 16721.9
3 -8.12988 -1.01786 2.56222 22514.8 -76196.9 1.07561e+07 -235296 5313.57 -7669.38
1 -4.37 -0.0799047 1.90006 369641 742271 -981193 333475 12318 -467208
3 6.97211 -2.17601 1.2231 193159 -162245 1.08497e+07 79549.6 -85094 35618.5
3 7.67412 -0.846393 1.2046 -61207.8 64406.7 1.07938e+07 -156175 -75075.9 27079.9
3 7.82481 -0.306898 2.64902 131634 -147385 1.0789e+07 163910 -54341.4 40329.1
3 -3.12919 -7.72987 4.17589 -224548 158692 1.0688e+07 -156191 -28382.2 18372
3 -1.66873 -7.88133 4.18652 -84960.5 12255.2 1.07549e+07 241789 -47373.1 3152.48
3 0.924229 -7.56657 4.09585 54173.8 -82686.1 1.07796e+07 -172996 -47553.3 -25696.5
3 2.2457 -6.96977 4.15389 -190777 147550 1.08178e+07 67775.4 -55286.8 -42428.5
3 -5.4356 -6.39073 4.23964 188186 -239924 1.06931e+07 124466 31295.5 46262.3
3 -6.41429 -5.36112 4.18425 -239723 202422 1.07072e+07 129868 59265.7 15570.3
1 -2.27686 -4.20155 4.91116 -712225 339317 516518 -296247 -701789 172228
1 -1.02482 -4.59384 4.22601 865770 -238759 -916546 131093 253157 -509909
3 4.32062 -5.22363 4.07684 125831 -115568 1.08326e+07 -71616.8 -58761.1 7591.54
3 5.33574 -4.25609 4.14317 -84798 99587.1 1.08684e+07 -83336.8 -42740.7 11260
3 -7.7406 -3.06235 4.13674 167863 -207410 1.07273e+07 -141219 35583.2 -17935.4
1 -3.39654 -3.78345 4.19606 76048.9 -214388 295608 217797 -646201 787791
1 -4.18684 -2.59636 4.56564 346835 619538 -827185 -255919 403008 -490973
1 0.0767288 -3.97446 4.84016 -996937 362693 724365 98196.7 306058 241783
1 1.20093 -3.59142 4.09898 -70121.5 -351357 452743 -347494 441955 725842
1 1.90126 -2.4036 4.42147 483601 702483 -879617 293429 -87754.8 -530460
3 -7.9332 -1.61758 4.07238 63151.5 -73635.2 1.07818e+07 242461 4902.51 -24202.7
1 -4.71988 -2.05993 3.30915 -232008 -763692 953343 580293 -83092.6 -3284.91
1 -4.70538 -0.703374 3.17929 -158923 -911413 895926 -436618 -112621 -147359
1 2.36488 -1.8105 3.21681 121510 -760273 1.07227e+06 -482691 -135801 -141149
1 2.31895 -0.426664 2.96664 -65249.8 -651313 991461 567794 -84637.7 -33834.8
3 6.87863 -2.12217 4.12566 182648 -185570 1.08312e+07 60810.3 -58167.4 12215.5
3 7.60802 -0.889729 4.13271 -72341.2 50182.9 1.07792e+07 -164034 -44175.1 11282.3
3 -4.99203 -6.84885 5.62634 -287491 231188 1.07114e+07 -2251.16 12822.4 28899
3 -3.76488 -7.60157 5.55636 60658.7 -101634 1.07319e+07 242192 -1366.53 5580.02
3 -1.07257 -7.96405 5.58817 -85022.6 66404.5 1.07301e+07 -228152 -37886.4 -19477.5
3 0.372368 -7.7899 5.54877 -179285 171132 1.0799e+07 152329 -29659.8 -57890.7
3 2.77163 -6.64682 5.58333 99701 -103899 1.08302e+07 -140842 -41844.2 -46862.8
3 -6.81588 -4.88981 5.5906 235552 -271849 1.07443e+07 -5797.18 29299.7 3661.07
3 -5.54649 -6.50751 7.03647 160819 -255488 1.07523e+07 163963 20931.3 8152.54
3 -6.56126 -5.46093 7.03849 -270320 163526 1.07944e+07 156713 22886.2 -20001.3
3 3.86934 -5.68103 5.54886 -155314 157425 1.08576e+07 -52724.8 -37634.5 -23999.8
3 4.32482 -5.29352 7.02129 115457 -143677 1.08716e+07 -83040.2 -36670.7 -27060.7
3 5.27505 -4.23324 7.0881 -110129 74006.9 1.08518e+07 -85904.4 -67282.5 13457.1
3 -7.46806 -3.61101 5.57503 -108501 73914.3 1.07788e+07 235680 -5562.82 -7378.93
3 -7.64085 -3.02761 6.96646 169977 -237513 1.079e+07 -135243 -29657.8 3857.2
1 -1.83555 -3.30895 6.00262 227495 195829 115013 556998 897093 -174305
1 -2.56837 -2.15813 6.40319 590533 -721100 573321 596424 308158 267696
1 -0.427951 -3.1699 5.94907 730454 34298.1 -322104 -451860 -718458 -409303
3 5.69191 -3.7647 5.62552 165078 -155967 1.08708e+07 -25180 -42011.1 19865.2
3 6.54225 -2.65146 5.57177 -82616.5 68701.7 1.08191e+07 -106975 -50892.1 20375.6
3 -8.01469 -0.995052 5.50756 73570 -132546 1.07983e+07 -222595 -38563.4 -20828.9
3 -7.9374 -1.57155 6.92553 17910.6 -96028.6 1.0842e+07 247718 -37763.1 4652.37
1 -3.78514 -1.82222 5.67937 176528 322079 -79045.7 -767723 -256860 -659882
1 -3.83162 -0.368477 5.47651 -110744 407413 -25205.6 732419 -359810 675255
1 -1.85866 -0.924977 6.61992 -615046 1.03814e+06 -154709 -112378 -623755 2178.49
1 0.307837 -2.00958 6.25684 885464 -911605 423228 -455436 -296101 86011.8
1 -0.450883 -0.860598 6.5346 -890060 970083 -41860.5 -189117 412730 61564.4
1 1.37992 -0.170111 5.29728 -39878 125656 112201 -913538 209611 473906
1 1.44733 -1.56874 5.49755 -190589 461395 110658 815199 279342 -470345
3 7.76412 -0.213825 5.58638 105989 -124950 1.08055e+07 172707 -46701.2 -11397.7
3 7.46273 -0.815639 7.03453 -79558.7 69583.3 1.08001e+07 -156470 -40267.6 -15523
3 -3.12356 -7.6404 7.06885 -222953 164292 1.07677e+07 -150061 -27274.8 -6265.57
3 -5.0492 -6.82183 8.42789 -272733 226611 1.0808e+07 -6991.43 -9055.77 -1942.36
3 -3.74347 -7.4878 8.48584 60168.5 -107592 1.07743e+07 243814 -15073.1 -5623.37
3 -1.69474 -7.94808 7.07359 -93070.5 34409 1.07568e+07 252236 -30957.4 -28774.1
3 -1.10426 -7.92366 8.50915 -89328.9 60601.8 1.07815e+07 -224270 -14266.8 -50307.3
3 0.940646 -7.53657 7.01271 37248.3 -64736.4 1.08051e+07 -199264 -23455.4 -77806.8
3 0.319768 -7.72016 8.49803 -190103 164133 1.08343e+07 157823 -13290.1 -54192
3 2.21124 -6.90419 7.00259 -206753 179878 1.08499e+07 35568.6 -22179.8 -45563.3
3 2.75403 -6.626 8.43091 74415 -127706 1.08517e+07 -155885 -12876.7 -40497.8
3 -6.87246 -4.90906 8.45516 213637 -319045 1.08002e+07 7835.22 5497.73 -6075.67
3 3.90884 -5.82841 8.43481 -174009 135048 1.08808e+07 -53733 -60609.4 -20138.5
3 -7.46844 -3.579 8.45148 -121327 24692.5 1.07642e+07 241774 -19900.8 7303.49
3 5.59458 -3.74934 8.5176 134879 -164445 1.09032e+07 -14486.6 -94148.1 -12724.9
3 6.49578 -2.59052 8.4908 -101133 71771.9 1.08775e+07 -108157 -83890.7 -11488.1
3 6.78773 -2.05196 7.03592 162335 -163583 1.08475e+07 77507.7 -71098.9 1627.29
3 -7.967 -0.923716 8.4108 59208 -68834.9 1.08693e+07 -212847 -20692.3 -30210
3 7.56966 -0.224318 8.5209 111756 -185483 1.08051e+07 163133 -22219.2 592.083
3 -3.11165 -7.62893 10.0421 -230892 184954 1.07911e+07 -143560 -42481.2 -18127.8
3 -1.67369 -7.93497 9.93891 -100053 57034 1.0767e+07 257124 -19631.9 -63561.2
3 0.907002 -7.44599 9.95267 30460.7 -55001.7 1.0801e+07 -215860 18143.6 -69202.1
3 2.20407 -6.88441 9.96838 -212609 178755 1.08668e+07 32899.4 18879.1 -61591.1
3 -5.51376 -6.41895 9.9192 192109 -232594 1.08092e+07 154327 -9880.42 -4154.61
3 -6.54742 -5.38407 9.96968 -246436 188101 1.07886e+07 136833 -3915.27 -4002.85
3 4.28589 -5.36157 9.97048 130256 -116776 1.08408e+07 -88973.9 -44258 -22803
3 -7.66273 -2.97956 9.85193 202356 -151568 1.07915e+07 -144707 -21543.2 -41020.8
2 -1.104 -2.30366 9.86265 -457791 567085 83808.1 702019 -474317 47885.9
2 -0.766595 -3.43471 10.7021 58408.3 -3986.86 410557 -915244 370248 -47162.7
2 0.60821 -3.28648 11.0717 826440 -301079 -169745 665561 -214575 582773
3 5.32692 -4.29825 9.93897 -79647.2 93221.7 1.0867e+07 -89308 -93632 -21200.9
3 -7.98953 -1.53192 9.80509 51181 -11053.3 1.08337e+07 229894 -46830.3 -34040.2
2 -3.41595 -2.19711 10.8007 670332 -741529 594725 -439607 -333823 233108
2 -2.36736 -1.75166 9.90592 -63066.9 495597 -43626.7 746800 372022 -523459
2 -2.52325 -0.329177 9.77456 -189395 252194 314234 -839936 127341 593286
2 0.113981 -1.52712 9.63243 918089 -882361 177184 -287572 267167 325702
2 -0.0366625 -0.0892828 9.50794 932878 -647795 -96904 48064.3 325617 -639124
2 1.14128 -2.06156 10.4572 -778717 770732 391348 -351642 -168610 -296602
2 2.09184 -1.29651 11.1378 262638 584627 -423746 -243596 -170249 -746193
3 6.92361 -2.13384 9.93928 174372 -197261 1.08323e+07 51439.5 -81826.5 -3712.3
3 7.41565 -0.792979 9.92577 -73340.3 33281.7 1.07855e+07 -167808 -25088.9 -10927.1
3 -4.95817 -6.74941 11.3899 -242018 220743 1.07616e+07 -53063.9 -17160.5 -13331.7
3 -3.69019 -7.43464 11.3993 110153 -160191 1.08097e+07 192788 -15211.5 -24457.8
3 -3.13844 -7.62696 12.873 -179799 108093 1.07791e+07 -175296 -850.371 13940.5
3 -1.05823 -7.85136 11.4531 -70549.9 -49447.2 1.07485e+07 -247727 -12306.9 -54312.4
3 -1.68944 -7.89428 12.8246 -34510.5 -59179 1.07534e+07 223887 -7211.03 32070.3
3 0.386282 -7.77879 11.4072 -190546 60335.7 1.08035e+07 204966 42234.9 -76242.4
3 0.933692 -7.44179 12.8562 90368.5 -200158 1.08153e+07 -120669 -37916.5 8270.43
3 2.30277 -6.95848 12.8574 -192936 87864.6 1.08426e+07 146020 -38094.3 4046.73
3 2.74006 -6.66538 11.3796 105562 -188096 1.08602e+07 -60482.7 -6102.6 -80147.7
3 -5.40239 -6.29832 12.8229 170320 -258245 1.07484e+07 61204.9 -7183.03 -7376.46
3 -6.78384 -4.79513 11.4253 183686 -259280 1.07632e+07 -75261.5 -762.348 -25706.7
3 -6.38278 -5.22602 12.8613 -258786 213285 1.07475e+07 77611.6 53532.6 1156.72
2 -1.34923 -4.21054 12.9871 -814520 -257316 873192 601171 -490247 51970
2 -0.0142797 -4.0782 13.3351 -922880 -308739 659462 -374467 -645006 -237188
3 3.94234 -5.87998 11.3661 -186837 163556 1.08022e+07 7287.65 -20311.9 -12487.3
3 4.41302 -5.38722 12.9007 118650 -115455 1.08491e+07 -29811.5 -45333.7 13635.4
3 -7.50297 -3.50903 11.3927 -155797 131063 1.07554e+07 195849 -44979.3 -34547.7
3 -7.71286 -2.93102 12.902 43583.3 -136028 1.07893e+07 -221356 16137.1 -45324.5
2 -3.0303 -3.24567 11.7102 529028 -38331.2 43098.6 161633 -740104 615456
2 -3.36148 -3.17893 13.1132 -748990 -78425.5 647491 434349 551525 -580942
2 -1.73062 -3.81278 11.6527 264492 586980 -412525 -298258 815054 -192061
2 1.04084 -3.67959 12.4198 731648 216389 -1.12374e+06 300366 103979 158942
2 2.05363 -2.87186 13.1367 -762951 -298172 876639 -464412 445132 301525
3 5.51172 -4.52829 12.8983 -71218.3 112371 1.08404e+07 -63325.6 -20616 -21596.1
3 6.58735 -2.72995 11.4026 -56653.1 71839 1.08022e+07 -99719.3 -69115.4 -17882.1
3 5.8492 -3.95408 11.4205 170485 -133592 1.08302e+07 -29602 -55120.2 -27789.9
3 -8.09915 -0.956188 11.3556 -19361.8 -9207.82 1.07873e+07 -219775 -49569 -42190
3 -8.1559 -1.53178 12.9222 -73089.6 23535.3 1.07677e+07 228688 38810 -49531.5
2 -4.13562 -1.05441 11.3833 -414757 1.10713e+06 -313335 -87721 674791 224009
2 -4.56267 -1.03825 12.7579 -1863.02 716289 -981997 61524.5 -183433 313571
2 2.52517 -1.67469 12.5201 288232 -1.03913e+06 1.01552e+06 -63310.1 172958 349078
2 2.65595 -0.425288 13.2389 300817 972528 -816810 23671.9 -216585 267607
3 6.81102 -2.17287 12.8333 186541 -185743 1.07512e+07 60720.7 -16872.9 -9033.85
3 7.52232 -0.231532 11.3813 119836 -182785 1.07624e+07 163560 -13171.1 -8350.78
3 7.36253 -0.856125 12.7836 -64459.2 44358.4 1.07496e+07 -153820 7636.26 -8082.6
3 -4.94079 -6.69159 14.2577 -259386 228279 1.07433e+07 -34931.4 -1542 -8152.71
3 -3.70221 -7.4187 14.3234 95208 -135945 1.07824e+07 220723 -15419.7 4340.34
3 -1.13916 -7.79187 14.3119 -41407.6 21851.6 1.07544e+07 -232901 -8814.65 42096.3
3 0.238267 -7.52883 14.3734 -151815 111152 1.08208e+07 181489 -50671.9 72288.2
3 2.7464 -6.54718 14.3296 95728.6 -134226 1.07988e+07 -101453 -38919.8 58797.8
3 -6.71356 -4.7013 14.3675 232769 -246005 1.07639e+07 -18708.2 23290.6 -21972
3 3.88634 -5.69982 14.3596 -155642 143928 1.08411e+07 -10600.5 -43687 8628.19
3 -7.49779 -3.49361 14.3707 -121028 95680.9 1.07945e+07 207732 36861.8 -40927.2
2 -2.34146 -3.83828 13.9296 582244 138597 -888100 -340897 6231.79 368123
2 -2.00598 -3.27368 15.168 573982 43984 -382449 -641862 -469796 -439301
2 -0.638009 -3.07808 15.4736 -42138 -105397 339947 782285 671160 -144632
2 0.379649 -3.56997 14.6505 26019.1 74486 -348615 63153.1 917157 322006
2 1.58703 -2.81092 14.5316 344544 -22030.7 -465000 25311.9 -815360 -593424
3 5.92044 -4.04149 14.3179 171278 -129747 1.08372e+07 -6572.65 31503.7 -14913.5
3 6.53627 -2.7459 14.2992 -53305.5 77378.4 1.08119e+07 -86359.2 49008.4 5031.82
3 -8.31095 -0.975498 14.3502 59005.2 -54803.4 1.07904e+07 -216129 32085.7 -43429
2 -4.17206 -2.10945 13.6154 -7981.31 -883618 520295 -86045.7 129368 -820588
2 -3.73629 -1.5821 14.9456 169396 -1690.98 31227 255225 -153122 970757
2 -3.81881 -0.152606 14.8195 205566 589481 -512399 -200560 -247185 -782095
2 1.65863 -1.56615 15.2002 769262 -743617 272711 370137 -324438 -696541
2 2.22495 -0.355951 14.6044 -359825 984493 -223310 -80208.9 602468 134938
3 7.54413 -0.257571 14.2694 119308 -131610 1.07907e+07 170366 28882 -46729.6
3 -4.99514 -6.63381 17.204 -293610 216003 1.08322e+07 -3353.11 -53826.5 -65648.2
3 -3.79887 -7.45048 17.232 49421.6 -130368 1.0802e+07 241798 -24371.5 -31602.1
3 -3.22847 -7.67034 15.7977 -225819 189051 1.07905e+07 -146258 -15750.8 -24259
3 -1.77946 -7.81962 15.7937 -80430.5 31757.4 1.08011e+07 239177 -11716.9 11511.5
3 -1.15584 -7.92039 17.2163 -87537.1 33149.7 1.08289e+07 -225372 -26850.6 -3087.06
3 0.237172 -7.59455 17.2207 -202967 156970 1.08378e+07 156858 -41732 15372.1
3 0.835139 -7.50851 15.7694 48690.6 -52720 1.08394e+07 -198592 -36098.2 46772.1
3 2.20367 -6.95962 15.7423 -210491 201156 1.08309e+07 41871.8 -21704 20427.5
3 2.72565 -6.60079 17.1937 95970.9 -116442 1.08685e+07 -131377 -17906.6 16835.4
3 -5.44674 -6.28192 15.7965 171630 -228884 1.08046e+07 150886 -29107.5 -49524.5
3 -6.40595 -5.21939 15.7593 -241202 188636 1.07885e+07 143394 -24839.1 -46589.3
3 -6.75038 -4.69204 17.2488 207324 -288693 1.08224e+07 -9919.21 -31111.1 -62072.4
3 4.38902 -5.39862 15.7153 127265 -118114 1.08478e+07 -77933.1 -12842.6 -4570.89
3 3.97862 -5.90418 17.185 -169322 141069 1.08982e+07 -37934.1 -3434.25 12593.7
3 -7.69517 -2.92023 15.8286 178516 -225557 1.08017e+07 -140776 1054.26 -55017.1
3 -7.47139 -3.46118 17.2818 -145193 67482.1 1.08511e+07 231757 -15053.9 -49242.8
2 -2.74076 -2.19075 15.7443 -765912 511735 619973 546019 -106023 460633
3 5.48323 -4.48742 15.7375 -84504.9 99480.8 1.08687e+07 -79085.7 50446.3 -21462.5
3 5.73215 -3.86526 17.2708 138459 -166651 1.08678e+07 -10493.6 48086.1 -18917.5
3 6.51572 -2.65923 17.2631 -117403 54589.5 1.08412e+07 -90099.6 50640.7 -27947
3 -8.16493 -1.56568 15.8472 41412.3 -84883.2 1.08355e+07 239454 -12287.3 -54733.4
3 -8.21425 -0.943011 17.2889 43677.3 -121665 1.08386e+07 -224692 -16668.5 -58011.6
2 -1.79387 -1.32344 16.4276 1.02375e+06 -506019 -72493 73216.1 328835 -599273
2 -1.91473 0.0769332 16.3361 920488 -775386 221548 -321020 288337 324299
2 -0.493703 -1.92926 16.2895 -405680 664498 168599 -462602 -672478 143115
2 0.568858 -1.09019 16.0074 -46449.4 175238 295210 -798289 107348 565113
3 6.75945 -2.15283 15.746 172732 -166695 1.08441e+07 80679.1 77632.8 -23084.5
3 7.33407 -0.868488 15.6848 -76976.2 69151.3 1.08317e+07 -135460 52035.7 -18099.3
3 7.55978 -0.256274 17.1635 118086 -167680 1.08151e+07 169164 51886 -5723.02
3 -3.17291 -7.58149 18.6188 -243320 146247 1.08178e+07 -155945 -21128.6 -21012.1
3 -1.74424 -7.83603 18.6757 -96590.9 6833.6 1.08406e+07 254169 -20666.9 -3185.76
3 0.882422 -7.53617 18.6675 14283.7 -95992.4 1.08259e+07 -194519 -20142.8 19744.2
3 2.19092 -6.91869 18.6536 -231616 173434 1.08867e+07 40837.9 -11966.2 24809.1
3 -5.43928 -6.3016 18.6717 176109 -265677 1.08325e+07 142437 -30579.9 -66143.2
3 -6.36665 -5.18092 18.63 -272150 163742 1.0848e+07 121610 -18299.5 -46228.1
3 4.41045 -5.44014 18.6659 97698 -149955 1.08852e+07 -66555.1 -3601.44 17444.5
3 -7.7437 -2.95781 18.712 155948 -228951 1.08307e+07 -153019 -3457.84 -42225.3
3 5.41379 -4.34748 18.6701 -115343 79174.1 1.08469e+07 -76739.6 16649 -31353.8
3 -8.04764 -1.5304 18.732 13729.6 -89382 1.08553e+07 244784 12982.3 -48782.3
3 6.80055 -2.13773 18.6706 157550 -164611 1.08559e+07 73296.2 37593 -58745.6
3 7.39114 -0.786483 18.666 -88074.5 45216.7 1.08132e+07 -156619 44240 -17501.5
3 -5.04314 -6.68667 20.0531 -303177 234603 1.08128e+07 -8079.96 -5953.72 -44625.3
3 -3.84386 -7.46957 20.0638 46695 -122571 1.08173e+07 241107 1824.78 -15669.5
3 -3.20625 -7.67199 21.55 -201235 176040 1.07842e+07 -152509 -8983.95 -18061
3 -1.78146 -7.75666 21.5474 -72154.7 57207.3 1.07714e+07 253338 -7798.07 -18350.2
3 -1.13358 -7.72056 20.1206 -108125 45366.4 1.08331e+07 -227400 -13388.6 11681.2
3 0.276667 -7.61492 20.1161 -211668 155130 1.08079e+07 152071 -2519.59 24373.2
3 0.818952 -7.4218 21.5366 41237.6 -40338.8 1.07763e+07 -184701 -2172.53 -18176.8
3 2.12171 -6.77705 21.5518 -196382 195785 1.08161e+07 33545.6 17253.6 -38340.8
3 2.63154 -6.45268 20.086 101859 -107978 1.08665e+07 -129273 -8702.66 7292.93
3 -5.55458 -6.41021 21.5108 201504 -219591 1.08027e+07 135023 -9027.75 -46459.2
3 -6.78351 -4.74314 20.142 220847 -263597 1.08075e+07 -11948.7 -8544.33 -50150.9
3 -6.51958 -5.34565 21.5272 -229009 220594 1.07523e+07 116467 -15353.2 -50045.5
3 3.90103 -5.838 20.0899 -154895 137203 1.08443e+07 -45012.1 -29583.7 5629.5
3 4.34734 -5.29357 21.6263 120922 -115170 1.0827e+07 -77312.6 -1554.93 -18278.5
3 -7.46185 -3.53894 20.1329 -136656 83797.4 1.0787e+07 223829 13261.7 -38133.4
3 -7.65789 -2.94147 21.5489 190105 -155695 1.07802e+07 -149073 -28945.6 -53880.8
1 -2.14613 -2.60338 21.2462 -106887 235295 224081 896023 -365026 -3640.73
1 -0.912445 -3.18699 21.5701 219082 565360 -659330 348401 -556121 -107226
1 0.311173 -2.44605 21.4696 339187 -401654 340844 -304426 593297 706720
3 5.26709 -4.20715 21.5784 -87784.9 102281 1.08534e+07 -79148.8 -3719.32 -13248
3 6.45524 -2.66721 20.0819 -98454.1 98761.5 1.08621e+07 -91545.3 31192.4 -48408.7
3 5.60321 -3.75724 20.063 144766 -148568 1.08358e+07 -6672.71 830.624 -27082.9
3 -8.05155 -1.54886 21.5364 55008.9 -28499.3 1.08125e+07 226547 -15020.5 -43141.4
3 -8.21659 -0.951583 20.1739 56437.1 -97763 1.08284e+07 -220298 7481.71 -55510.3
1 -3.28353 -0.559928 21.2653 843567 -787754 256540 451579 -180648 306612
1 -2.136 -1.29723 20.7342 -385330 433004 244519 -868721 298534 -36918.2
1 -0.933474 -0.542239 20.4839 132070 366937 -215139 -655941 -252157 -606048
1 0.390501 -1.23325 20.7723 479287 -884895 657741 440294 269066 274079
3 6.80837 -2.13908 21.5838 169275 -157618 1.08175e+07 74844.9 25240.8 -45831.8
3 7.40418 -0.828214 21.5613 -78559.2 89130.5 1.08068e+07 -142087 47027.4 -56280.7
3 7.51257 -0.24673 20.1562 102267 -123083 1.0831e+07 178243 40735.5 -58254.5
3 -5.07386 -6.71356 22.9127 -219460 212203 1.07661e+07 -83954.7 -19256.4 -33612.6
3 -3.86936 -7.49456 22.9122 140433 -129285 1.0792e+07 201898 14539.2 -43162.3
3 -1.15789 -7.79928 22.989 -47701.6 -31983.8 1.07757e+07 -229432 -11710.4 -49360.1
3 0.221568 -7.62086 22.9733 -182312 57663.5 1.07662e+07 191321 4206.56 -45497.2
3 2.67022 -6.54898 23.0376 80240.8 -162305 1.08214e+07 -94832.7 41434.5 -71760.4
3 -6.82816 -4.82518 22.985 238939 -236279 1.07262e+07 -49356 -38562.3 -42683.4
3 3.86547 -5.72094 23.1354 -172996 120561 1.08314e+07 -12529.7 15540.8 -26365.8
3 -7.39048 -3.48439 22.99 -147579 129821 1.07712e+07 187903 -69227.9 -47243.8
1 -1.90249 -4.21259 23.5828 -952542 -83200 689470 256376 404887 -209674
1 -3.21 -3.54708 23.2381 765004 334753 -885316 -237211 150307 213120
1 -3.29462 -2.74809 22.1014 812019 -487245 77402.1 -615254 227728 469285
1 -0.790924 -4.04241 22.7159 -602977 -535292 775404 -640906 141700 -47480.8
1 0.477331 -3.78068 23.3187 513695 141644 -837019 352441 160783 496809
1 1.19144 -2.87549 22.4717 -245903 60666.7 363915 -299624 -576360 -693465
3 5.62977 -3.70856 23.0508 184186 -125358 1.08519e+07 -9591 -13265.7 -27439.5
3 6.53087 -2.61708 23.0156 -57613.6 112888 1.08187e+07 -103685 30942 -44661.6