ITEM: TIMESTEP
80000
ITEM: NUMBER OF ATOMS
2928
ITEM: BOX BOUNDS pp pp pp
-2.1702396728208470e+01 2.1702396728208470e+01
-2.2429456209410116e+01 2.2429456209410116e+01
-2.2915032400000001e+01 1.3324666840000000e+02
ITEM: ATOMS type x y z f_avestress[1] f_avestress[2] f_avestress[3] f_avestress[4] f_avestress[5] f_avestress[6]
3 -4.43671 -5.91208 -21.3784 -346006 229905 -270082 6798.25 62807.1 -62190.1
3 -3.19915 -6.56652 -21.3408 70137.5 -200719 -509357 268039 191642 -32385.1
3 -2.66889 -6.9605 -22.5513 -263697 176218 -428079 -166810 217579 -58703.5
3 -1.29478 -7.2872 -22.5806 -85723 -1930.34 -314164 260173 309406 -35203.6
3 -0.578318 -7.44887 -21.3754 -61357.3 31859.1 -259886 -228024 249363 27541.3
3 0.808859 -7.491 -21.3392 -130027 117678 14066.9 203193 248270 49350.8
3 1.48028 -7.31438 -22.5574 31560.5 -84591.9 6791.01 -168219 217286 71214.8
3 2.82268 -6.90375 -22.5763 -206933 161800 17133.5 92030.5 152779 81361.9
3 3.49971 -6.69089 -21.3731 217972 -62579.9 122646 1860.94 36537.2 59623.9
3 -5.91544 -4.36028 -22.5575 -253328 142534 56181.7 159077 46258.2 -86469.6
3 -5.00463 -5.4164 -22.5537 163587 -286366 -210927 119300 93949.9 -26837.1
3 4.71787 -5.98355 -21.408 -79709.9 231070 -158565 82933.7 -6075.21 -2626.06
3 5.30155 -5.59281 -22.6281 193558 -139178 -218197 4150.32 -54645.5 -12737.2
3 6.30594 -4.58275 -22.6733 -122335 160790 -344363 -28769.1 -55121.9 -108402
3 -6.18453 -3.74041 -21.327 154361 -339835 62709.3 11982.2 66398.4 -9121.32
3 -7.03103 -1.84396 -22.6157 119226 -332923 -100349 -134392 30367.3 -14622.9
3 -6.69972 -2.46033 -21.3656 -146706 -58506.7 -79954.9 277470 16721.3 -37934.8
3 6.67634 -3.97586 -21.4464 237559 -45306.7 -211264 140948 -172827 -193703
3 7.37307 -2.79063 -21.4894 -80559.9 234726 -275949 -35698.9 -99579.9 -334503
3 -7.27448 -0.433779 -22.6286 16600.1 -259221 -114493 219376 18304.2 -22622.8
3 7.78476 -2.20312 -22.6947 167902 66480.5 -282329 197808 -155532 -286916
3 8.08737 -0.82902 -22.7448 -39962 281880 -399312 -76790.1 9701.23 -364733
3 -4.35363 -5.92331 -18.9158 -303450 275322 -446857 -64.3298 66474.8 -85437.7
3 -2.59483 -6.93128 -20.1463 -286974 201696 -563832 -182672 188658 -23583.4
3 -1.28021 -7.26158 -20.1679 -61706.6 7754.06 -287197 295988 245951 -8043.55
3 1.50049 -7.31891 -20.1204 319074 -36400.4 142027 -25210.1 101182 79164.3
3 2.86527 -7.04526 -20.138 96949.8 216457 158335 209649 80067.3 47575.2
3 3.48764 -6.69499 -18.948 614371 169626 270664 307820 -78558 -951.094
3 -5.68033 -4.26312 -20.1109 -216073 226685 114442 118858 -4260.31 12771.4
3 -4.8904 -5.41833 -20.1312 196826 -247714 -319979 61859.1 72758.6 38581.3
3 4.64028 -5.90588 -18.9554 405159 393570 -74807.6 357947 -28301.7 -65656.5
3 5.24445 -5.5878 -20.1636 380369 62097.3 -96497.6 187760 -101120 -61905.6
3 6.2942 -4.61558 -20.1836 60894.3 334432 -116106 143083 -86147.2 -140616
3 -5.8185 -3.5716 -18.8784 253210 415821 265869 -276545 93695 -97906.9
3 -6.34601 -2.28643 -18.9167 -82153.2 929612 -571867 31205.6 -24364.4 274533
3 6.67788 -3.9458 -19.0013 308699 200736 -131287 237730 -97363.9 -135559
3 7.3036 -2.68728 -19.0751 -12113.6 434139 -44606.2 39756.1 -41529.5 -170269
3 -6.73559 -1.6987 -20.1438 109771 -537940 -220277 -114869 -9795.08 141325
3 -6.95576 -0.315235 -20.2112 3363.76 -433215 -83893.5 260841 36122.7 151985
3 7.49434 -2.05618 -20.3208 182118 -92316.7 -229903 196343 -238012 -342930
3 7.60747 -0.693057 -20.3835 -27171.3 24471.5 -345355 -140040 142862 -416207
3 -3.29274 -6.82134 -18.9339 188133 -215878 -616316 250152 211013 -12635.5
3 -2.74167 -7.30818 -17.7177 43969.4 257902 -558837 -249281 54330 10761.7
3 -1.30165 -7.40345 -17.7027 300660 53534.6 -68503.4 252764 35569 -52483.6
3 -0.640016 -7.42622 -18.9537 252198 21465.5 -79124.7 -171606 31760.8 50732.1
3 0.760551 -7.31478 -18.9431 179043 168321 28154.3 255921 26022.7 -16390.7
3 1.39802 -7.18182 -17.7153 811352 98048.5 147743 252859 -185658 12159.6
3 2.70279 -6.67569 -17.7719 679621 263323 220407 382076 -60654.9 -130626
3 -5.25982 -4.10204 -17.6436 124217 210595 338438 -117438 245763 -299942
3 -4.72885 -5.40337 -17.6496 308120 7836.43 -578072 -132810 115471 25078.4
3 5.1404 -5.36407 -17.7356 573507 470790 -172035 458291 24071.7 -83717.8
3 6.13415 -4.33736 -17.7798 375531 603868 27218.8 440191 71764.9 15468.6
3 -6.27748 -1.52448 -17.7376 112118 -46037.3 -105243 -109551 -190879 276135
3 -6.58393 -0.17935 -17.7877 1799.52 146264 175701 113343 -28482.1 -53839.9
3 7.44386 -1.92622 -17.9167 157957 -161462 -322015 181934 3617.2 146337
3 7.30081 -0.525643 -18.0533 37459.4 -149582 -651763 -263782 134227 97447.6
3 -4.40709 -6.09548 -16.4785 82009.3 494401 -556126 -161880 -125529 -227225
3 -3.4027 -7.09799 -16.4755 677629 -6396.84 -558932 10067.9 139558 -60290.3
3 -2.77803 -7.60508 -15.3312 -562865 207139 -379188 109253 15097.9 -189773
3 -1.36693 -7.71281 -15.2784 -384577 76584.1 525076 84973.2 -308030 -235784
3 -0.684038 -7.52455 -16.4588 750707 74873.7 264021 22853.6 -292483 24375.7
3 0.699322 -7.36815 -16.5024 687698 156303 -43237.2 255672 -288790 -283618
3 1.33971 -6.99339 -15.2961 -587588 -169898 -418556 -416868 131056 121776
3 2.44188 -6.20886 -15.2971 -259736 -579522 814707 -452487 -199894 -123010
3 3.21308 -6.17085 -16.5191 616512 246680 403661 296254 -240263 -69320.4
3 -4.76468 -4.0673 -15.1744 -216169 -938206 164137 259935 -461039 45864.1
3 -4.644 -5.49602 -15.208 233359 -1.13403e+06 -497828 453335 214588 102161
3 4.42359 -5.455 -16.5305 692818 72808.8 -347770 427257 63224.8 -307200
3 4.70203 -4.72236 -15.369 -106654 291118 -725268 412951 349617 -516802
3 -5.33494 -3.45868 -16.4017 -223720 -13789.2 -226114 334632 -316656 297484
3 -5.97536 -2.21862 -16.4922 -299698 -468920 -74352.9 495774 -44692.8 886384
3 6.47032 -3.66062 -16.5633 73676.7 425249 -206177 241559 400266 86968.7
3 5.75629 -3.77032 -15.3576 413275 137489 -209844 139653 512712 343822
3 7.1872 -2.42887 -16.6244 -7484.2 567572 -155090 1749.02 174478 438518
3 7.14856 -0.162702 -15.6914 80910.8 128505 -40792.7 -341005 -75116.1 636951
3 7.339 -1.54183 -15.53 18812.4 91844.1 -533310 130420 542529 683260
3 -4.34724 -6.18098 -14.04 -1.4875e+06 40045.8 -483595 779605 -950717 869493
3 -3.40921 -7.40393 -14.0918 -301853 -1.15983e+06 -581851 572584 655356 -800768
3 -1.22558 -7.08056 -12.7639 -1.35034e+06 567662 1.17598e+06 122941 703982 794810
3 -0.65069 -7.56396 -14.06 -1.17601e+06 -341718 41605.5 -779216 -736190 -230999
3 0.664838 -6.98504 -14.1074 -1.72146e+06 -75543.2 -793467 -76585.2 978405 -169795
3 0.882726 -6.21741 -12.8908 -366530 -438464 669207 -1.19503e+06 -961076 128568
3 1.80057 -5.16482 -13.1275 503106 -123962 1.92707e+06 -828798 -1.10532e+06 477573
3 2.68188 -5.37528 -14.1947 400167 -605922 1.07254e+06 -1.00188e+06 -1.13346e+06 110527
3 3.6661 -4.45783 -14.4128 -228465 -2.10012e+06 -927076 -119822 345638 -750719
3 -4.16141 -3.46605 -14.0519 243581 573810 -1.37269e+06 -465725 -177082 -1.10862e+06
3 -3.4722 -3.60386 -12.8449 133988 -90047.1 92505.3 23895.1 -237033 276423
3 3.53105 -3.23439 -13.8921 -1.19674e+06 -2.84716e+06 -1.29401e+06 388630 198977 -1.9974e+06
3 4.6091 -2.30775 -13.7874 -1.96801e+06 274625 -279344 -409141 1.2814e+06 675617
3 5.79866 -2.77785 -14.3325 -1.43772e+06 247107 191252 -588217 598880 99143.1
3 6.98755 -2.00215 -14.2408 -774356 -169286 -798682 -1.01438e+06 266799 423240
3 7.45475 -1.14662 -13.1519 -90128.9 -1.02577e+06 -144504 32060.2 -354183 -251884
3 -2.60966 -7.07559 -12.7431 -1.37184e+06 1.10106e+06 123270 79585.3 -652331 824270
3 -0.165644 -6.42719 -11.9357 1.84424e+06 821349 -851525 696745 -57425.1 -437466
3 -3.65681 -5.97554 -12.6877 1.10733e+06 -595269 -169339 26724.2 789672 -1.45071e+06
3 -3.62646 -4.77421 -11.9978 417320 306989 -432631 145922 394775 350754
3 1.4498 -3.81265 -11.1161 -305023 1.84743e+06 258134 422743 595823 854817
3 1.82971 -3.98017 -12.3886 -312275 761012 480008 -956998 51439.8 623852
3 -2.75213 -2.57801 -12.3014 -34611.6 -515056 331202 -208980 194196 -725167
3 2.41224 -2.87957 -13.0882 -2.1118e+06 -1.47269e+06 -354932 -833524 1.06606e+06 -28745.2
3 2.7149 -1.54012 -12.6942 -1.20054e+06 -1.35217e+06 -615320 894842 928839 -1.34968e+06
3 -7.73254 -0.0531934 -11.3692 78513.8 -51597.7 -213570 -5313.63 -16365.1 155465
3 -7.34081 -0.465818 -10.1478 222212 179499 -478828 374716 71962.8 90029.7
3 -2.18912 -0.440191 -10.7377 194356 170558 -1.04181e+06 -243864 414171 -83873.2
3 -2.16215 -1.45661 -11.7463 33875.5 99816.9 -630591 118518 62309.4 -415933
3 2.04811 -0.819779 -11.7042 -278992 380182 -3.2493e+06 1.40085e+06 855340 -427162
3 4.11756 -1.27858 -12.896 14143.7 -1.14784e+06 -231249 -1.21823e+06 -378065 -498003
3 4.81234 -0.756558 -11.8427 -414875 -957041 -592610 -777581 -313713 -509222
3 -3.02309 -6.89073 -9.25165 393536 -439516 -95229.6 360003 -390398 133754
3 -1.72442 -7.05033 -9.43787 -443896 323822 273161 38424.6 61946.5 -440216
3 -0.352643 -6.90218 -9.51302 163055 366882 168621 27846.2 107837 411801
3 0.47449 -7.6057 -8.6823 41046 -71884.6 -55706.1 472361 -534345 59043.5
3 -3.27537 -4.78406 -10.691 -190210 948550 -1.33337e+06 247193 524659 -74559.3
3 -3.73816 -5.78774 -9.53382 1.31238e+06 -950066 499246 -311453 -496733 -98313.3
3 -4.03213 -4.68756 -8.36867 220652 962509 -571579 -1.09186e+06 432950 470580
3 -2.90484 -3.99606 -9.3152 -887916 -2.10783e+06 120928 -119375 175001 -290762
3 0.0743126 -6.06554 -10.5582 1.33683e+06 188030 87223.3 -129650 83461.1 277455
3 0.627688 -4.75805 -10.1625 -18211.3 -307014 1.30042e+06 -548875 -421864 305518
3 -8.2159 -2.56539 -8.32728 -436545 342421 -350464 -196938 -316841 -58264.6
3 -6.89857 -2.31302 -8.61563 574220 -313.026 211091 -113554 111582 -93973.4
3 -6.09734 -3.45912 -8.40022 52329.6 391110 -147754 405284 20814.9 156143
3 -1.70637 -1.68924 -8.68529 -98353 -752907 -132393 -115793 -505891 365570
3 1.06659 -3.50057 -9.17151 357445 1.63424e+06 -774003 771265 710509 -33198
3 1.85463 -2.6842 -10.2898 485608 778007 1.19955e+06 -128153 182710 1.58236e+06
3 -6.5614 -1.05231 -9.17778 839433 -35048.1 32379.5 -16664.3 233187 -139539
3 -5.22117 -0.48326 -8.9336 49647.2 381025 63207.8 -79713 -114529 239019
3 -3.88028 -0.553707 -9.02272 -169249 145046 338099 325573 332686 -144780
3 -2.53312 -0.804142 -9.39613 367359 -95002.7 -618698 241382 298465 512389
3 2.25843 -1.35197 -10.3764 837589 997322 -1.8748e+06 277160 309601 87470.5
3 3.38631 -0.726891 -9.67039 952941 600389 200871 844758 -944421 -681766
3 4.46526 -0.208035 -10.4492 1.3565e+06 389094 275361 1.02247e+06 -658639 -684243
3 -5.21399 -4.19607 -7.78181 -429563 721249 -103970 -286398 148991 -88531.5
3 -2.06021 -3.0097 -8.89481 -291338 -1.48627e+06 230917 -655824 -6359.99 -247458
3 0.63142 -2.67002 -8.19748 30423.6 703264 -758841 293872 310504 104181
3 -0.406596 -1.53351 -7.9356 -330584 334493 -104872 -131326 21852.4 -261210
3 1.07443 -1.24096 -7.47312 46610.7 341270 -404400 -8258.37 -47245.8 5892.47
1 -6.95547 -2.30828 -5.21843 -1.13444e+06 471810 511672 64106 -448150 -309664
1 -8.53993 -0.457277 -5.72629 45857.7 627913 -623750 -559112 518879 443799
1 -8.26337 -1.7678 -5.17865 -477287 -46711.9 572045 731142 183079 -651668
1 -6.21177 -0.208865 -6.27012 652054 -1.36471e+06 -71177.7 566967 51456.4 -87870.3
1 -5.90697 -1.49495 -5.80495 641963 -491233 -972101 306996 -61209.3 735141
1 -4.70739 -1.7005 -5.0662 -988970 -35243.2 430537 -615317 356770 -221262
1 -3.81116 -0.63736 -4.92915 157274 -743716 513242 -493530 52824.4 -819666
3 1.82556 -0.270587 -6.92057 -171951 -5374.15 -331348 9555.73 -317264 -86700.1
1 -8.53762 -2.61052 -2.8815 26203.9 400282 -371915 -212790 -941332 250265
1 -7.18453 -3.167 -2.93339 425463 31046.4 -464413 143366 885209 -476415
1 -6.39065 -3.07116 -4.10937 377468 -158272 -193437 -471080 866094 456664
1 -4.98871 -2.62524 -4.00264 145048 324203 -599242 521880 -900788 126452
1 -4.42429 -2.39634 -2.74544 592499 69619.9 -728904 228885 -428201 -800133
1 -10.0158 -0.209638 -2.57168 77407.1 515157 -649609 -304767 -290598 -814274
1 -9.88367 -0.737046 -3.85587 -276081 748556 -486045 77406.5 694400 -556447
1 -9.10807 -1.95729 -4.01348 509613 -360774 -121385 -213185 -283982 873058
1 -3.54546 -1.24924 -2.56882 -274579 468360 -107958 -127306 707521 630355
1 -3.20246 -0.401489 -3.63782 191980 -43302.5 -91177.5 359317 -120482 943871
1 -7.54989 -2.25468 -0.793203 800964 124403 -973230 -342971 -198093 -476112
1 -6.56939 -2.921 -1.64031 -1.00006e+06 276173 730301 228438 -422821 330347
1 -5.21498 -2.56601 -1.54013 -587211 -190057 773765 -694375 33150.2 360235
1 -8.74891 -2.06009 -1.56433 -602682 -143408 728064 632555 596706 -92153.1
1 -9.53773 -0.897507 -1.40875 281424 -1.10967e+06 809822 234248 255038 274623
1 -4.82924 -1.51741 -0.628046 240451 575179 -837856 513244 586689 -206670
1 -3.77486 -0.733047 -1.23833 152129 -717866 537274 -455834 -588527 -493624
1 -7.94111 -0.0557947 0.265323 -1.18655e+06 911941 225322 178807 -141180 111553
1 -7.15961 -1.25835 0.132925 634304 -835613 149402 -718227 -116376 -287626
1 -5.76349 -0.856454 0.162338 -329269 83704.3 217466 1.04516e+06 217432 -50104.9
2 0.210471 -2.07881 7.57358 190194 270234 -456153 -301925 988136 26454
2 -1.68568 -0.67563 6.89384 681150 -1.10017e+06 464512 112075 -391761 299270
2 -1.20193 -1.77132 7.63224 259661 14089.4 -251675 274050 -926297 425069
2 0.563907 -0.178725 6.02439 -924020 858229 114096 201693 -533965 -191622
2 1.06827 -1.29423 6.78467 346989 -691702 361600 -779636 493641 157287
2 2.38246 -0.949891 7.25789 118928 213052 -312225 795346 -489578 473374
2 -0.529041 -2.47142 9.76144 925136 231115 -1.15244e+06 -157180 -57677.3 211247
2 0.618492 -2.53601 8.88328 -957685 183598 787961 298847 -562295 -24912.2
2 1.88903 -2.18298 9.36334 -355433 -378541 752882 -599878 -511055 -396259
2 -2.58942 -1.11557 9.55529 171265 -823666 654742 300417 357010 -652964
2 -1.65892 -2.0011 8.9872 -865462 210775 658711 223608 674843 -311394
2 2.77394 -1.37779 8.54036 568495 620755 -1.16497e+06 369675 59171.6 -29831.7
2 3.44163 -0.438829 9.41137 -296749 -455431 775907 -600310 354461 541167
2 -2.4359 -0.704283 10.9347 -25800.3 302175 -240739 250972 -488809 907616
2 -1.35448 -1.17131 11.7014 -1.11395e+06 673291 475659 -35337.1 -344108 361176
2 0.922304 -1.68506 11.5889 -642643 301657 379969 719109 601557 97754.2
2 -0.383903 -2.06086 11.102 901918 -415967 -432215 -360537 -225015 -669121
2 2.026 -1.7323 10.73 7125.38 415061 -362962 18825 818163 625623
2 2.98921 -0.664667 10.7599 412367 38329.1 -366477 52282.5 -558077 -838402
2 -0.645996 -0.254305 12.5862 582785 -627682 -68920.5 620217 462554 -472472
2 0.768143 -0.57421 12.5061 -271652 84462.8 -3027.96 -875523 -633275 -122396
1 0.18895 -0.420388 16.0877 -604739 539957 -149079 680573 460562 -432473
1 1.50252 -0.904486 16.037 -845378 771367 -265.905 478187 -591412 -48899.4
3 7.89063 -0.0597839 -21.5975 91922.1 118283 -404135 202637 -136770 -386102
1 -0.429612 -2.21718 17.686 415207 -117775 -256287 253808 -833976 559526
1 0.928473 -2.71739 17.6361 64973.3 361863 -365978 -326560 973056 -80845.8
1 1.87679 -2.05831 16.8279 114934 -497624 430137 -885703 431618 10341
1 -1.64384 -0.0818664 17.5033 -507041 919384 -306422 -337520 644467 248013
1 -0.786269 -1.09236 16.9266 706604 -1.14235e+06 483909 -130570 -337775 272180
1 3.20641 -1.83153 17.3414 355031 -13883.9 -269762 793607 -362781 561409
1 3.66147 -0.540814 16.8647 -738898 502208 319199 -669323 -256644 -506348
1 -0.922555 -2.35895 19.0364 -854522 174495 664487 341637 586386 -406307
1 0.120521 -2.95465 19.834 856129 253061 -1.1082e+06 -241947 33640.2 287313
1 1.26635 -3.17253 18.9718 -849379 88967.6 752395 458078 -610842 21297
1 2.55493 -2.93345 19.468 -483391 -194110 678119 -545936 -647269 -403317
1 3.51516 -2.25011 18.6424 644348 519188 -1.14728e+06 347387 144031 53157.9
1 -2.13893 -0.217502 18.8066 236125 913968 -1.11022e+06 -113707 -157666 187229
1 -1.76572 -1.38115 19.5921 204153 -812001 616932 190662 271111 -770901
1 4.31067 -1.40379 19.4958 -487769 -377647 856610 -656048 329448 404425
1 4.74441 -0.155019 19.04 203095 -1.0855e+06 869686 199081 44681.2 470565
1 0.304976 -2.53954 21.1685 771167 -237929 -520335 -447888 -277086 -635240
1 2.7497 -2.50235 20.8328 -93227.6 325998 -225982 -35228 889970 558828
1 1.64612 -2.32131 21.6795 -538825 142605 449133 769844 607983 83854.2
1 -1.57641 -0.942182 20.9596 74869.2 87272.6 -145147 272596 -338373 986310
1 -0.555493 -1.52115 21.7312 -1.06205e+06 599716 509892 220492 -324089 435517
1 3.84471 -1.55961 20.8534 442086 75531 -498946 32753.2 -629895 -735021
1 3.81262 -0.444369 21.7028 418367 -671490 325537 676424 -127070 -600866
1 0.253624 -0.66996 22.5719 732940 -663321 36850.8 445342 500366 -522720
1 1.61682 -1.15861 22.5422 -356495 361788 128139 -751301 -713992 -19791.7
1 2.68417 -0.238287 22.578 44233.6 -179725 273094 -912931 69136 593061
2 0.854408 -0.28523 25.7845 -686768 593791 184420 681562 320609 -427056
2 2.16992 -0.663805 26.0385 -740711 839029 48274.2 311800 -660574 -183548
2 1.40596 -2.34111 27.6669 -99991.2 304959 -150964 -221856 1.02729e+06 -113071
3 6.34832 -1.95004 53.4207 -161083 48793 -405667 -160186 -26898.7 -56581.5
2 0.0473597 -1.91964 27.4283 490747 29066.3 -459032 165356 -824204 470541
2 -0.227134 -0.926826 26.48 782904 -1.07016e+06 401142 -54159.6 -349226 382930
2 2.45816 -1.71925 26.9745 118708 -567381 535865 -817094 507382 53683.6
2 3.68102 -1.3656 27.6639 311171 174598 -426108 692822 -408559 541228
2 4.11583 -0.0790206 27.1601 -602255 260362 416833 -732251 -216266 -582913
2 0.261909 -2.36697 29.7125 879070 271643 -1.10192e+06 -202463 198135 113166
2 1.54265 -2.62273 29.0796 -763601 152544 657188 321297 -773752 62639.6
2 2.71041 -2.24048 29.756 -299214 -350115 673187 -590481 -631051 -389734
2 -1.63336 -0.96587 28.944 134728 -916911 820889 331673 226353 -552259
2 -1.743 -0.360971 30.2534 106848 380209 -395852 138125 -402010 924293
2 -0.65673 -1.93927 28.6871 -970864 152035 857136 359019 423402 -286180
2 3.80525 -1.6083 29.0459 564660 557467 -1.07995e+06 375330 252368 -88836.9
2 4.35861 -0.595043 29.9195 -451512 -354563 828325 -662276 270119 499183
2 0.146701 -1.77568 30.9785 873207 -424792 -391664 -356634 -100161 -698812
2 -0.870454 -0.787811 31.2752 -1.00594e+06 717611 346913 10708.1 -499494 392896
2 2.59692 -1.62792 31.0595 -215894 461902 -198228 13286.5 872825 536172
2 1.35508 -1.42699 31.6923 -701740 247889 437720 772982 432179 185156
2 1.09848 -0.191824 32.4079 -209240 163634 -41595.6 -843862 -666716 -126562
2 3.63215 -0.631553 31.1675 539735 -52222.1 -393425 80697.3 -513974 -810230
3 -5.0322 -3.76827 34.8942 449731 -237817 -111320 -23338.2 -225717 -155215
3 -3.77244 -3.85289 34.6339 539030 -153894 -119170 -30598 -238463 -101837
3 -2.47957 -3.76145 34.7573 571759 -42880.2 -127566 37397.7 -140661 -57609.3
3 -1.17353 -3.65304 34.5461 517672 25097.9 -137898 80838.5 -9508.82 -33443.1
3 0.0774535 -3.07085 34.4992 447719 1553.49 -148237 41030.8 50478.2 -1693.65
3 -0.610784 -5.2942 35.5331 394775 -304701 -619813 -62777.3 97481.6 -155741
3 2.95738 -4.76575 36.5307 614518 370868 188688 592705 -193830 -86902.4
3 -8.32141 -1.84154 36.735 -196726 209706 385854 309139 -308663 -581238
3 -6.22062 -3.85846 35.5158 238210 332949 -481257 -470643 49557.2 -97515.1
3 1.23396 -2.54393 35.003 207593 -159741 -110498 90003.1 41153.6 253.682
3 2.52972 -2.72361 35.5898 -73235.4 -408031 -110837 174553 14585.1 96430.2
3 3.26282 -3.37104 36.5789 1.5629e+06 600311 -620469 905539 305899 -15878.7
1 -2.34369 -1.4851 36.6323 379857 -262446 -892185 -150548 101581 494093
1 -2.1238 -0.328451 35.8893 750857 -1.19541e+06 232619 -319795 11553.6 50184.7
1 0.0671394 -0.0703919 36.9613 -87590.8 728010 -766497 311923 -565490 142243
3 -1.04829 -5.71888 36.7277 17481.9 -195069 -547921 83470.3 266811 89334.4
3 -0.146369 -6.33701 37.6951 -2.40519e+06 622290 3.51019e+06 524487 -441136 -662143
3 1.21839 -6.57791 37.5222 -1.21901e+06 231369 -250572 673125 -1.22139e+06 574203
3 1.73346 -7.61863 38.2932 -78948.5 -446396 -2.23033e+06 983320 -2.06487e+06 -42519.7
3 2.09413 -5.70931 36.8694 1.14501e+06 292983 -269810 194579 63777.7 162104
3 -6.03913 -4.67369 37.7026 671387 -272032 -1.42745e+06 -1.03371e+06 136740 946266
3 -2.24992 -5.27109 37.409 -1.04349e+06 -86330.9 -373396 135464 -139301 149986
3 -7.56196 -2.76914 37.5601 666119 505075 2.0052e+06 -93255.8 -747210 -489698
3 -6.65853 -3.70714 36.8971 503544 -121699 430890 -160971 -508867 283300
1 -3.50525 -2.45822 38.3993 -538323 37037.3 -379808 -504375 870695 -7806.17
1 -2.07671 -2.55666 38.6923 -234692 -26393.8 -353016 410949 -1.06644e+06 236638
1 -1.37517 -1.96031 37.5784 -1.57855e+06 298434 666694 -398563 355513 -426350
3 3.7829 -2.90254 37.9201 164074 969537 -268930 240664 776957 120666
3 -9.01603 -0.718005 37.0963 -765533 1.17252e+06 -1.5415e+06 -280886 1.05746e+06 -244943
3 -9.54404 -0.842121 38.4318 -701241 553535 -1.83228e+06 -291295 1.30717e+06 -79522.5
1 -5.4903 -0.492441 37.9714 -165827 -518566 -476197 -373025 13632.3 772716
1 -4.66543 -0.863086 36.8663 -400476 -1.03379e+06 567724 784285 -11050.9 -762980
1 -3.6611 -1.84299 37.0737 -1.55278e+06 -169978 578346 537367 -517733 -282728
1 -0.198111 -1.23138 37.7741 -661162 -523823 501328 -877602 -153782 -808063
1 0.252663 -0.960384 39.0929 158484 -526989 -359148 215481 -51463.4 790637
3 6.60188 -1.30248 54.6603 196550 -294022 -476881 126572 -58305.1 4110.48
3 -0.772064 -6.16281 39.0578 912543 176276 2.55333e+06 -14586.4 -907732 -170799
3 -0.251503 -6.58716 40.3227 1.22704e+06 157425 2.4775e+06 -432646 652969 -315581
3 2.00348 -7.2008 39.6091 -1.4039e+06 -221499 -2.04408e+06 -1.97069e+06 233026 -859346
3 3.16453 -6.46946 39.7803 -1.81554e+06 -1.01737e+06 -1.76921e+06 -1.05994e+06 -2.38944e+06 180146
3 -5.63065 -5.05414 38.9452 1.14465e+06 1.00753e+06 -1.80035e+06 -1.22638e+06 1.59816e+06 7353.62
3 -6.69781 -4.68881 39.8642 -238214 -290530 -567497 371589 286528 196150
3 -4.55336 -5.81308 39.7243 194387 844963 1.14269e+06 19723.6 1.16598e+06 -1.06385e+06
3 -3.07976 -5.80365 39.8794 959864 339767 216037 -317084 1.39961e+06 -422431
3 -2.14084 -5.66618 38.8529 -279860 -76474 -745014 -210535 1.64044e+06 -160312
3 3.66464 -5.59368 38.7305 -118058 -1.1913e+06 -777800 -352022 166703 1.34705e+06
3 4.6686 -4.20878 39.9851 -338010 -879980 -173895 7025.34 660806 454896
3 -7.97918 -2.67633 38.9705 848714 1.4499e+06 2.28823e+06 -898756 -477404 -346149
3 -7.34982 -3.40747 40.0491 478912 588083 2.13046e+06 -105283 -379044 -704613
1 -4.33407 -2.06615 39.4581 193374 -400360 -338625 89244 607449 -865837
1 -1.59176 -2.35916 40.01 97309.2 -362646 -355583 -232493 -887394 -695931
3 3.48536 -4.31205 38.404 -610077 -722948 -1.25489e+06 76653.3 1.21242e+06 803665
3 4.3629 -2.05229 38.9235 180862 682500 1.32759e+06 196722 507723 888038
3 4.69849 -2.80323 40.0579 244769 -197157 -268478 -23530.8 -274734 -26873.2
3 -8.84731 -1.61836 39.364 479856 820981 -207382 -459793 -275570 107319
3 -8.82261 -1.13955 40.6848 26745.8 838820 -605403 -469228 38383.8 470155
1 -5.35295 -1.08358 39.2198 -625102 237223 -518663 -59445.1 -837729 312204
1 -5.54505 -0.313734 40.413 -441606 -963884 561649 682021 480753 -314154
1 -3.85675 -1.87202 40.8023 -907186 181439 816994 544114 -295888 527299
1 -0.435515 -1.51561 40.1653 -767448 87660.1 -318189 213547 738864 185518
3 4.72365 -0.658709 39.0238 568774 555363 633690 434012 683194 439569
3 5.30518 -0.135634 40.1746 183849 564660 948444 703417 138988 432606
3 -5.37904 -6.22862 40.8783 -1.83287e+06 -2.49042e+06 -2.10921e+06 2.0364e+06 -635462 170679
3 -4.89639 -6.55775 42.0764 -679297 1.75656e+06 624958 -480996 -3.53544e+06 3.23895e+06
3 -3.38463 -6.343 42.2932 -2.39598e+06 -596260 -2.11081e+06 203774 -926314 -1.15637e+06
3 -2.59101 -6.36114 41.1832 1.37913e+06 102130 1.06378e+06 -245424 198358 160990
3 -1.20895 -6.63113 41.4444 1.39311e+06 -32212.6 1.08769e+06 -101008 90874.6 184332
3 1.04433 -7.10478 40.6512 594330 325583 950607 -263436 1.74057e+06 612436
3 1.59179 -7.05429 41.946 2.91893e+06 369423 761853 754571 881930 -13687.6
3 2.78341 -6.36995 42.182 2.56461e+06 559067 -1.31748e+06 958415 266349 224948
3 3.5009 -5.97725 41.0038 -1.20689e+06 649708 -2.40737e+06 42808.7 -1.48796e+06 309895
3 -7.12273 -3.7202 42.5391 -236830 -880614 261832 436057 805446 -1.50142e+06
3 -6.49442 -5.39664 41.0486 -2.35179e+06 -1.69446e+06 -1.96678e+06 1.63956e+06 797027 -430456
3 -6.63058 -4.98846 42.3718 688078 -1.49182e+06 -120885 450877 2.62484e+06 -3.028e+06
3 4.35178 -4.88936 41.1282 -903485 41088.5 -1.03442e+06 -490785 -676329 -600583
3 4.67951 -4.29323 42.2913 378409 -202198 -1.76226e+06 109762 -96111.1 -351253
3 -7.57709 -3.01786 41.4465 68102.6 -121272 1.88951e+06 125613 42708.2 -443651
1 -2.49717 -2.03624 41.102 -1.116e+06 346206 890477 -424943 270244 473196
3 5.13606 -3.00615 42.3614 -123753 315029 205079 -79440.1 -264206 -413007
3 4.9265 -2.1993 41.2565 -31973.3 -329958 562630 -291816 122909 -602632
3 -8.42611 -1.9473 41.7648 -93841 -230136 -480441 224094 -113557 24855.8
3 -8.5753 -1.49153 43.0299 129297 -331574 -427873 -194725 21494.9 -209995
1 -4.63467 -0.798408 41.4091 330476 468266 -821401 -564221 -511758 -399995
1 -1.8729 -1.02086 41.9277 493596 305343 -756025 409296 350546 -417591
3 -7.64479 -4.04172 54.4787 -877807 931832 -1.39509e+06 -1.01858e+06 -733595 -118518
1 -0.598567 -0.711979 41.3342 -699090 -873715 632703 -852683 -585029 -221028
3 5.36896 -0.921411 41.3587 10253.5 -222591 1.22332e+06 42926.8 265844 549787
3 5.69258 -0.3742 42.5727 203063 1.13099e+06 1.47421e+06 312992 147832 -260576
3 -0.297365 -8.22505 44.1876 -173310 829986 -783678 1.55217e+06 -3.73502e+06 -839054
3 -1.63672 -7.50955 44.0088 -2.18314e+06 -783212 -1.30087e+06 638246 -568289 1.18272e+06
3 -0.897042 -7.00675 42.7347 2.69969e+06 -269853 698542 -705318 481891 252906
3 0.704195 -7.36624 43.1427 4.30628e+06 1.42563e+06 2.33273e+06 921672 1.58049e+06 -928740
3 1.60688 -7.03925 44.4542 320420 -828169 1.04537e+06 -1.23072e+06 3.53882e+06 1.27877e+06
3 2.68316 -6.19853 44.5333 -524541 -197586 -776957 -399556 1.37184e+06 638818
3 3.26776 -5.83068 43.3667 497612 3198.95 -1.59691e+06 85107.5 884710 706163
3 -6.88418 -4.13237 44.9473 258120 1.57464e+06 213249 -602105 34792.7 1719.15
3 -5.64399 -5.82088 43.4271 2.6147e+06 3.00532e+06 3.19889e+06 -2.03337e+06 518150 1.10344e+06
3 -6.07533 -5.28476 44.8081 1.03523e+06 1.0041e+06 1.33001e+06 -864259 22017.3 218517
3 -3.97634 -6.05324 43.7412 1.92476e+06 -445237 -261614 -301156 63739.8 -521097
3 4.35139 -4.94613 43.4644 -207478 430462 -1.07097e+06 38957.1 193913 94240.8
3 4.93554 -4.51509 44.6756 249027 -191920 -589804 27505.6 -5712.69 -99017.8
3 -7.37681 -3.34594 43.8501 148385 -190327 -517399 -25869.7 433438 -1.1826e+06
3 -8.28358 -2.31211 44.1407 -143030 -247005 -696693 299914 202323 -467170
3 5.52923 -3.29442 44.7803 -174074 260711 336794 -96484.2 -194106 -369415
3 5.73793 -2.55844 43.5482 121537 -67096.1 343720 82472.6 -94908.9 -559321
3 -8.81718 -0.161278 43.303 -4991.19 -286013 -1.05828e+06 257034 -24392.3 -214873
3 5.29348 -3.70857 54.5586 -129284 346888 -265465 107333 -26160 -30358.3
2 -0.144685 -1.07916 44.3446 324486 -440576 239284 -938451 -3583.93 48860.5
2 1.28117 -1.01619 44.265 330822 -262600 202875 1.16423e+06 -102321 196573
3 5.92035 -1.18951 43.7035 -33557.1 268718 1.20394e+06 -80978.7 -133046 -534894
3 6.30398 -0.724266 44.971 27959.3 -105912 984691 -20432 37989.8 -351595
3 0.109865 -8.38245 45.4951 -3.51841e+06 -534694 -2.01809e+06 -1.18818e+06 199127 259669
3 -0.75727 -8.2639 46.553 68445.1 173225 -890319 166364 772522 -196174
3 -5.75059 -5.99143 45.9445 476325 542492 1.14445e+06 -398971 256376 -306847
3 -3.69988 -6.71143 44.9021 569520 317521 -19763.3 -335743 -369276 -241981
3 -4.53239 -6.71217 45.9685 957502 151708 516016 -239592 139654 -229112
3 -2.46811 -7.37976 45.0702 607187 254556 696275 -166955 -286881 -259958
3 -2.06207 -7.81304 46.3296 310060 204000 14986.2 -245137 676173 -82689.7
3 1.28602 -7.73637 45.6111 -3.2257e+06 -479855 -906273 -1.17382e+06 -175655 179333
3 1.88124 -7.49385 46.8581 -417143 -43284.1 -731710 -273778 329647 -168796
3 3.31752 -5.93592 45.7707 178403 -115661 221456 -84737.2 444906 208860
3 -7.37108 -3.73802 46.2171 396019 -69013.4 -254973 -267508 -139464 244563
3 4.47644 -5.18428 45.8477 -158880 157091 -237256 8677.67 187108 1821.49
3 -8.25832 -2.63339 46.4239 -45543.2 172158 -653875 118329 30021.3 371747
2 -2.09702 -1.92499 45.5755 11793.2 -379098 693312 687511 -604662 196718
2 -0.876805 -2.16124 44.8463 719161 320008 -692824 -558425 330440 506269
2 -0.15638 -3.2078 45.5201 -796798 323186 791277 482238 191253 -432788
2 1.23922 -3.13259 45.5691 -749312 404921 715586 -412492 -477177 -552102
2 1.97624 -2.04017 44.9335 688912 413395 -849670 679906 -442710 532781
3 6.03485 -2.85603 46.038 25591.3 97058.2 488881 140570 -128235 -516182
3 -8.64188 -1.82306 45.3708 101301 -590502 -1.0649e+06 -224595 110913 -159906
3 -9.16197 -0.508722 45.5724 12801.3 -528472 -869957 278989 30754.5 -133298
3 -8.29934 -1.18223 54.0084 531092 -1.06773e+06 -803501 207255 224405 1.18952e+06
2 -2.61511 -0.637698 45.6935 504783 -938169 704716 -82123.3 -362740 -415385
2 2.98189 -1.61919 45.883 -320074 -559423 456422 -553369 486589 295846
2 3.42684 -0.297493 46.0078 335287 -1.0767e+06 779638 215925 348397 -284758
3 6.49424 -1.52702 46.1244 -85604 283892 753503 -38264.6 -48627.1 -392981
3 -2.41403 -7.80284 48.7211 -168096 -9394.14 -608156 -197409 647820 149684
3 -0.238719 -8.19668 47.858 90059.9 44618.1 -951431 -117932 883256 -144810
3 -1.05731 -8.0025 48.9498 -150385 -204702 -825565 274201 709287 -292827
3 -6.13632 -6.51396 48.2619 -769418 96125.9 732868 293669 -192694 -16712.3
3 -5.06892 -7.36606 48.2482 -438074 -201037 267145 503037 -189679 -38638.5
3 -4.16763 -7.2174 47.2072 -81661.5 117331 551526 -78172.9 141987 -6325.19
3 -2.83199 -7.59515 47.4169 -212888 -48449.4 -235743 77659.7 325886 -324685
3 1.14359 -7.77855 48.0172 89464.1 212207 -614670 235043 478151 87104.4
3 2.93489 -6.58537 46.9691 -234682 -51196.4 13236.5 -131744 140922 116166
3 3.46311 -6.25553 48.2053 221308 23475.1 304086 124979 30442 -193909
3 -7.08713 -4.58517 47.2772 -326423 48946 -288593 248310 -19858.9 229432
3 -7.62604 -4.28659 48.5333 344849 252899 -472348 -338792 131302 46628.3
3 -6.40574 -5.76996 47.1292 322247 -425684 658251 240221 -125635 -40511.6
2 -0.302845 -3.93767 47.885 2288.23 -68207 -397654 -390558 -870472 -217030