ITEM: TIMESTEP
20000
ITEM: NUMBER OF ATOMS
2928
ITEM: BOX BOUNDS pp pp pp
-2.4126555833667538e+01 2.4126555833667538e+01
-2.4442783569861611e+01 2.4442783569861611e+01
-6.1834216000000000e+00 1.1651505760000001e+02
ITEM: ATOMS type x y z f_avestress[1] f_avestress[2] f_avestress[3] f_avestress[4] f_avestress[5] f_avestress[6]
3 -5.2564 -6.93959 -4.58484 -305385 222896 6.63415e+06 -32114.7 41326.9 12108
3 -5.77218 -6.57172 -5.94615 226835 -275473 6.64415e+06 124395 26645.8 16901.1
3 -4.02517 -7.66005 -4.65993 73466.7 -147781 6.57833e+06 259711 22167.7 1875.1
3 -3.48693 -7.8207 -6.01371 -225393 145624 6.58116e+06 -169165 -9105.8 -6036.98
3 -2.04551 -7.98776 -6.00909 -106524 37535.7 6.55808e+06 252828 -27232.4 -43499.8
3 -1.36902 -7.94598 -4.66504 -151197 25958.7 6.54367e+06 -216368 -15816.7 -44233.2
3 0.00437579 -7.75283 -4.67851 -245204 142721 6.551e+06 158045 -11218.5 -56808.1
3 0.61643 -7.54762 -5.99265 -39627.1 -37230.6 6.53959e+06 -189353 -15469.1 -40789
3 2.00417 -7.11044 -6.00905 -246373 189286 6.55204e+06 33550.9 -17942.7 -24157.6
3 2.56219 -6.75255 -4.66835 42270.3 -80519.5 6.58196e+06 -164311 -33600.5 -49068
3 -6.99776 -4.85336 -4.60555 239232 -322778 6.63111e+06 -47763.6 33569.4 22947.6
3 -6.57917 -5.38548 -5.97087 -279765 225032 6.64647e+06 136778 37922.4 14802.9
3 3.74151 -5.95086 -4.67979 -210172 157022 6.64997e+06 -30930.2 -33354.4 -21381.9
3 4.30553 -5.63203 -6.00833 118809 -102467 6.68293e+06 -105200 -12598.3 14181.5
3 5.38758 -4.67806 -6.01574 -146359 113871 6.74014e+06 -49161.8 -18504.8 13771.2
3 -7.86579 -2.99924 -5.92561 146393 -232276 6.68083e+06 -196059 9115.34 34393.4
3 -7.58596 -3.57466 -4.61344 -135755 68899.3 6.68709e+06 270875 35160.6 35655.8
2 -0.729855 -1.76982 -4.75928 386293 12978 -31450.3 87455.3 787434 -663091
2 1.702 -2.39514 -4.99612 845995 201504 -648511 356432 -571506 349228
2 0.356834 -2.2172 -5.48944 -95126.7 236028 219655 -504679 883284 74855.2
3 5.70717 -4.13312 -4.68667 124584 -216152 6.71503e+06 32085.6 -43424.5 43470.3
3 6.65258 -3.03345 -4.69004 -245706 97444 6.72034e+06 -30662.9 -92922.2 58899.4
3 6.98997 -2.52921 -6.03952 111953 -194843 6.71621e+06 72582.7 -28215.7 12006
3 -8.07217 -0.982224 -4.58321 92.4766 -60337.8 6.70513e+06 -209763 -25839.7 31609.2
3 -8.03332 -1.59232 -5.94706 42059.2 -138128 6.72785e+06 260673 -23424.3 27246.9
2 -1.94374 0.237473 -4.27478 -265057 -268718 854715 584605 258686 -17735.9
2 -1.63258 -0.7205 -5.31542 396507 655789 -751614 -294000 -683615 416917
2 4.04363 -1.19596 -4.38656 35711.5 -232927 -223078 198361 330567 999290
2 3.7564 -1.48251 -5.76125 163.375 -274296 475919 -367911 -266950 -760360
3 8.00011 -0.633416 -4.67279 108428 -182772 6.68373e+06 166918 -75080.9 64308
3 7.64093 -1.27404 -5.99631 -97015.8 60922.5 6.70015e+06 -156196 -49562.4 22495.8
3 -5.65409 -6.42988 -3.26045 216083 -287878 6.62698e+06 131778 49850.1 20097.3
3 -3.43294 -7.81323 -3.32046 -230056 154158 6.5754e+06 -165778 29284.4 -13759.3
3 -1.96367 -7.98955 -3.29905 -101391 20994.8 6.57274e+06 256252 19385.7 -36097.8
3 0.598333 -7.54791 -3.32843 -38823.5 -49122.3 6.58271e+06 -192438 -35313.5 -77553.4
3 1.97281 -6.98754 -3.31937 -255385 192235 6.60367e+06 39148.7 -36434.6 -73504.1
3 -6.67003 -5.39537 -3.26358 -276933 207585 6.64824e+06 137414 38377.3 23313.6
3 4.18571 -5.51536 -3.33012 115509 -124738 6.69187e+06 -110932 -66411.6 -43379.3
3 5.26125 -4.57468 -3.29767 -152086 106860 6.66631e+06 -67633.4 -100364 23192.6
3 -7.69284 -2.94004 -3.25922 140550 -208212 6.67735e+06 -194163 29249.9 36181.1
2 1.9485 -2.1831 -3.65222 900651 -21513.2 -616929 132533 -285530 -623928
3 6.94186 -2.51712 -3.35094 157838 -175320 6.69484e+06 41346.9 -107862 108420
3 -8.02009 -1.57998 -3.23724 39495.2 -120584 6.70748e+06 261765 -27704.4 26344.9
2 -0.412424 -1.33253 -3.42055 -367307 215697 536531 334505 -554505 524142
2 -1.12658 -0.126038 -3.08355 703255 353903 -946480 -467784 -64791.6 -593491
2 0.87817 -1.4889 -2.95762 -698234 297087 851997 -538988 -126973 272127
2 1.43658 -0.520148 -2.08306 393828 296867 -497669 649051 752051 -286227
2 3.17269 -1.50335 -3.30631 -658356 499389 147985 118245 878411 458529
2 2.87863 -0.51578 -2.31727 198270 -90619.7 285321 -506910 -642244 -362008
3 7.62618 -1.25163 -3.31148 -45509.5 69581.7 6.67341e+06 -180400 -94698.3 79386.4
3 -5.20128 -6.76305 -1.91743 -293678 228121 6.63032e+06 -36025.3 56933 18809
3 -5.72956 -6.41252 -0.602451 204467 -288671 6.61101e+06 150357 40961.9 54446.6
3 -4.01569 -7.5666 -1.95138 87427.4 -148387 6.60333e+06 242696 49034.6 -1843.89
3 -3.47956 -7.75556 -0.598384 -217253 162026 6.59354e+06 -162858 70074.2 -19482.5
3 -2.05952 -8.04576 -0.609142 -79072.1 29862.9 6.59002e+06 247149 42545 -27680.1
3 -1.42866 -7.98353 -1.96049 -130532 31209.2 6.57122e+06 -216766 25713.6 -38199
3 -0.0367286 -7.74244 -1.99028 -218469 129562 6.60998e+06 163586 9635.57 -78062.6
3 0.624041 -7.61902 -0.639288 39383.4 -49983.2 6.63006e+06 -178014 -18874.4 -99505.9
3 1.90678 -7.02459 -0.677859 -196715 184066 6.65605e+06 64660.8 -33504.4 -92394.1
3 2.46884 -6.67984 -2.01579 54091.5 -102493 6.63921e+06 -154167 -44950.4 -96267.6
3 -7.14697 -4.86538 -1.9063 240045 -311302 6.65214e+06 -59742.4 38053 47360.3
3 -6.79169 -5.45671 -0.577423 -279442 198251 6.6305e+06 159666 65514.6 50337.2
3 3.60838 -5.81276 -1.99077 -199667 166060 6.70456e+06 -37050.4 -46217.3 -62112.4
3 4.07996 -5.43756 -0.668221 108746 -154687 6.69555e+06 -76937.5 -67289 -39934.9
3 5.08364 -4.48105 -0.603414 -136305 111172 6.72081e+06 -91579.9 -82021.8 -3528.47
3 -7.89206 -2.94914 -0.577724 148654 -216524 6.64525e+06 -185426 22978.7 54854.1
3 -7.64056 -3.5341 -1.91847 -126494 80943.5 6.67439e+06 256658 44775.3 31142.2
3 5.62971 -4.09419 -1.92289 159134 -164161 6.68695e+06 -63685.9 -101098 5177.52
3 6.5648 -3.01341 -1.97556 -84507.7 78905.7 6.68775e+06 -153635 -94100.1 52756.9
3 6.94967 -2.55785 -0.603777 158948 -217514 6.67715e+06 13954.7 -80317.8 68384.3
3 -8.06352 -0.935487 -1.9285 25674.2 -104939 6.68807e+06 -240032 -26478.1 26552.3
3 -8.17649 -1.53458 -0.60979 56205.8 -117086 6.67352e+06 254296 -21276.1 33098.5
3 7.85779 -0.67026 -1.88558 195827 -197044 6.641e+06 129234 -54705 107649
3 7.59016 -1.31757 -0.54864 -76517.1 20435 6.66015e+06 -186518 -54979.8 90695.4
3 -5.19855 -6.74116 0.695005 -287627 256715 6.59037e+06 -9745.33 60975.4 44190.1
3 -4.05227 -7.53713 0.683647 73731.3 -112796 6.57896e+06 262033 41270 7689.02
3 -1.42314 -8.02998 0.703374 -78051.9 61576.5 6.58514e+06 -220624 23893.3 -53681.4
3 -0.0443829 -7.87925 0.670351 -178559 153417 6.62127e+06 165554 -3515.6 -83918.7
3 2.43865 -6.75985 0.659475 105606 -101896 6.65895e+06 -135357 -47760.7 -86537.4
3 -7.08236 -4.83525 0.772302 266859 -308074 6.60585e+06 -24407.6 55756.2 95887.6
3 3.55982 -5.86169 0.656041 -155367 190304 6.69175e+06 -36799.3 -68523 -39404.6
3 -7.80732 -3.59602 0.772516 -97503.2 63371.7 6.65619e+06 268932 34571.1 62424.2
1 -1.64035 -3.63469 2.24624 516004 -286172 254490 -979413 126743 -4408.67
1 -0.2002 -3.61077 2.36174 457579 -371281 137172 964194 -122154 293085
3 5.52098 -4.05098 0.677487 139460 -182344 6.67744e+06 -42391.6 -83999 38360.6
3 6.47977 -3.0147 0.716289 -115684 71628.1 6.64833e+06 -133378 -83713.3 63129.4
3 -8.15177 -0.894685 0.758042 46701.3 -91325.9 6.66297e+06 -245890 -31572.1 43885.6
1 -1.97241 -2.36097 1.59275 -990568 852425 239275 520597 2550.18 20236.4
1 -3.11291 -1.63004 1.96743 -74531.3 1.06224e+06 -555829 416379 622874 -210519
1 -0.693381 -1.63981 1.28466 798867 -1.19524e+06 -178791 70567.5 197437 2493.14
1 0.428253 -2.47762 1.769 -925175 608599 -36155.1 -576906 -212767 -29037.1
3 7.7278 -0.694585 0.785915 155054 -204839 6.64142e+06 134733 -52181.1 96527.1
3 -5.70715 -6.45985 2.07795 225501 -236278 6.56409e+06 145427 48114.5 54276.9
3 -5.21318 -6.86986 3.40008 -230922 249437 6.53213e+06 -54834.2 36820.2 10422.3
3 -4.01509 -7.57479 3.32367 139388 -144881 6.55078e+06 189094 29664.5 -43082.7
3 -3.4022 -7.72871 1.9903 -188277 211145 6.5611e+06 -161221 42910 -12253
3 -2.03757 -8.07533 2.00134 -40514.9 54904.9 6.56207e+06 241771 30661.2 -69139.7
3 -1.35995 -8.05321 3.30978 -5360.45 17755.5 6.54284e+06 -217094 17401.6 -121177
3 0.0545788 -7.87187 3.34552 -93527.4 71586.8 6.60292e+06 188750 39842.4 -151291
3 0.623175 -7.61307 1.98836 71560.9 -31664.1 6.59477e+06 -180983 2048.51 -121646
3 1.94493 -7.10769 1.99398 -158554 214618 6.65452e+06 62835.3 -3352.69 -96214.6
3 2.53952 -6.84813 3.31239 105582 -145239 6.61699e+06 -78542.3 18137.8 -98066
3 3.75519 -6.06706 3.32067 -151240 169123 6.63117e+06 7537.46 -21031.4 -25737.9
3 -6.69847 -5.39819 2.08488 -226326 215636 6.5781e+06 168028 48502.7 56137.2
3 -7.07733 -4.9075 3.40881 246482 -253415 6.57567e+06 -65017.3 20786.5 12172
1 -1.89507 -4.72056 4.39832 -815463 228378 829198 462070 124928 -328788
1 -0.520874 -4.7486 4.54095 -694183 77574.9 594530 -435058 -422288 -382034
3 4.15884 -5.52666 1.98698 136590 -147739 6.6577e+06 -109900 -52255.2 -12635.1
3 5.22372 -4.64549 2.00455 -120309 92149.1 6.66226e+06 -103758 -85147.9 29142.2
3 5.66022 -4.18643 3.37067 163405 -180150 6.61923e+06 -68243 -53165.5 66141
3 -7.9159 -2.97282 2.05644 197668 -194486 6.63311e+06 -177395 19477.6 69801.5
3 -7.57906 -3.55227 3.46526 -83349.5 126832 6.58221e+06 242104 -9333.86 38706.9
1 -2.49059 -4.07197 3.2403 745248 384393 -650459 -510942 444397 321235
1 -3.67045 -3.38133 3.61634 104361 -208417 639158 589996 -657245 212894
1 0.319723 -4.2214 3.48429 824919 311070 -846801 506528 -193501 515690
1 1.52291 -3.66535 4.08138 -73108.1 -377864 793502 -606958 570319 220738
3 6.91174 -2.55988 2.08968 154785 -211927 6.62874e+06 27139.5 -77655 77872.7
3 6.56405 -3.07334 3.38379 -81779.9 34026.7 6.62281e+06 -125432 -71024.9 77054.4
3 -8.25307 -1.55704 2.06782 85021.3 -85728.5 6.65795e+06 256884 -32235.7 70250.1
3 -8.10722 -0.912701 3.38929 -67464.8 59554.2 6.67663e+06 -224938 -56103.6 40815.2
1 -4.01092 -2.16496 3.02969 545672 -787071 621244 -3797.38 -303690 -374018
1 -4.48049 -1.06724 3.8644 -383154 327140 -359945 -308978 514499 696349
1 1.54503 -1.87853 2.33413 114529 847579 -766152 -367502 -516685 -314086
1 2.06147 -2.46761 3.55496 413291 -891912 808576 135963 329217 -192755
3 7.57622 -1.28197 2.128 -89002.6 24009.7 6.62737e+06 -163754 -72174.4 89240.8
3 7.74589 -0.6743 3.42174 153440 -236572 6.61193e+06 128569 -67929.7 106413
3 -5.76633 -6.48962 4.69455 265098 -232826 6.51407e+06 74563.6 43617.5 31402.5
3 -5.23693 -6.91376 6.07858 -245352 271065 6.51679e+06 -28107.9 46275.6 1265.78
3 -3.98603 -7.57004 6.06245 106796 -154491 6.54631e+06 194649 44649.5 19327.6
3 -3.36672 -7.78472 4.64015 -156888 72790.5 6.54242e+06 -232563 35271.3 -29456.7
3 -1.94596 -8.14492 4.67475 26638.3 -127961 6.54953e+06 260464 14586.6 -75137.9
3 -1.3269 -8.08877 6.04502 -19741.6 5343.69 6.55793e+06 -222892 13845 4448.35
3 0.0795923 -7.88276 6.05684 -109076 54021.7 6.58886e+06 207395 -5618.16 5620.41
3 0.621467 -7.66306 4.70012 124332 -249825 6.61371e+06 -122599 20855 -90168
3 1.98546 -7.19746 4.66797 -187889 109582 6.61267e+06 176723 -231.737 -27750.7
3 2.5993 -6.89408 5.98686 97109.7 -128407 6.57263e+06 -139463 20708.2 36313
3 3.8094 -6.12686 6.00588 -168880 139863 6.58904e+06 -30257.3 28313 72088.4
3 -6.697 -5.40532 4.759 -253255 238802 6.54184e+06 60030 42061.3 18115.4
3 -7.0613 -4.87372 6.07356 253848 -256668 6.52527e+06 -68791.6 64032.6 37993
1 -2.69244 -4.32393 5.54532 561387 -290682 -464938 42665.6 -534050 639079
1 -2.07666 -4.15496 6.72712 216020 -129344 -414928 -421396 -802258 -276414
1 -0.639927 -4.26734 6.9021 -154550 -141579 -242598 478527 959125 -166443
1 0.171172 -4.60679 5.80453 289204 -460250 -433235 -32728.1 722146 659427
3 4.30521 -5.74694 4.66826 75922.8 -175099 6.58173e+06 -81718 -499.538 55746.4
3 5.25793 -4.71638 4.67806 -126760 90296.4 6.62214e+06 -118891 -18542.3 69858.1
3 5.6791 -4.21987 6.02257 154131 -170888 6.60124e+06 -58898.9 4059.33 69196.2
3 -7.83566 -2.93636 4.74896 73625.1 -118225 6.6081e+06 -237395 7952.18 18036.5
3 -7.69831 -3.61026 6.06572 -127350 120559 6.59809e+06 227356 73035.7 17872.6
1 -4.28153 -2.46414 5.86277 196458 -400086 3136.85 -216248 213203 -901255
1 -3.8317 -3.54788 5.08899 -474590 353210 90819.4 -45097.8 832659 -431012
1 1.42239 -3.88783 5.5171 -105235 285740 -348601 100664 -828950 -406594
1 1.78113 -2.79427 6.35275 513886 -85802.9 -82545.5 407749 -126524 -895359
3 6.59138 -3.15023 6.03694 -82947.9 50806.2 6.62915e+06 -129348 -7630.35 56963.1
3 6.95025 -2.57231 4.73735 175307 -221430 6.63179e+06 23270.9 -43441 80018.1
3 -8.08188 -1.56333 4.7557 -120062 21885.6 6.65583e+06 253281 34234.7 8792.41
3 -7.93098 -0.952023 6.05865 -21818.5 -385.139 6.66017e+06 -215971 106790 12700.3
1 -4.53927 -1.20019 5.27239 -336958 294097 -541515 220773 -465411 732685
1 -4.07696 -0.198887 6.17392 258672 -959582 758516 123718 286860 -283631
1 2.37206 -1.58617 5.80355 -32358.9 604591 -197631 -350877 458385 619387
1 2.40356 -1.38321 4.42676 106628 680923 -367556 138584 -450584 701309
3 7.70062 -1.3336 4.78486 -88542.2 5406.34 6.62321e+06 -155177 -56328.6 96328.2
3 7.74882 -0.661711 6.16622 155332 -190423 6.66386e+06 150724 -54277.2 69518.1
3 -5.69672 -6.45758 7.42571 221515 -236015 6.54865e+06 147419 48511.4 -8521.5
3 -3.32317 -7.69971 7.34365 -231519 191922 6.55318e+06 -138895 26814.1 8917.49
3 -1.97589 -8.09565 7.34797 -66199.2 43808.9 6.57999e+06 256450 15329.8 -11955
3 0.669376 -7.65703 7.35083 23243.6 -64699.8 6.5718e+06 -230127 28930.5 -1398.24
3 2.00476 -7.19911 7.36801 -246210 196227 6.58196e+06 33984.8 48012.3 12153
3 -6.62571 -5.37732 7.4164 -217852 202608 6.54281e+06 171622 51590.7 -2285.16
3 4.30252 -5.75144 7.36907 104289 -139643 6.61417e+06 -104989 53719.6 60093
3 5.29542 -4.74041 7.37142 -114538 87410.9 6.63457e+06 -103581 35710.6 66372.7
3 -7.81555 -3.00007 7.38936 205490 -228061 6.63091e+06 -172822 52711.3 8263.22
1 -2.4995 -3.05027 7.55235 -937743 336813 782616 383351 374980 247296
1 -3.59607 -2.25416 7.14376 -62276.5 -346502 721077 620376 -52800.3 704157
1 -0.225987 -3.16286 7.78012 -590894 359142 519220 -416010 -702746 84500.2
1 -1.37688 -2.43567 8.14571 1.20024e+06 -126259 -605711 82000.2 163597 -584289
1 0.99628 -2.43826 7.47601 194145 -431245 646001 -645102 -138230 423270
3 6.97398 -2.64421 7.4062 155337 -218735 6.66557e+06 35426 -12916.3 40254.3
3 -8.11637 -1.61865 7.40766 70545.8 -116832 6.69005e+06 254575 89574.2 7495.23
1 -3.55937 -0.802447 7.39671 228031 960250 -705105 -317007 -451546 -281754
1 -2.37081 -0.149071 7.94603 -703956 915106 308980 -642861 -154248 -146018
1 -1.33308 -1.01222 8.44905 1.14581e+06 -991294 153036 7276.83 65223.6 -33656.3
1 -0.0484144 -0.321367 8.15911 -856159 711049 154211 635197 -28641.3 -61464.4
1 1.06376 -1.05722 7.6666 -53040.4 810242 -532244 361833 563151 -296314
1 1.89586 -0.442578 6.6256 533733 -868291 656732 -65735.7 -360271 -280208
3 7.59703 -1.34982 7.46825 -80007.6 14647.6 6.64171e+06 -164472 -52957.6 35999.6
3 -5.10488 -6.7079 8.75058 -314820 245668 6.57532e+06 23752.3 26811.3 -28702
3 -5.57208 -6.38499 10.0802 185869 -269343 6.5918e+06 170921 42219.5 -19113.1
3 -3.94926 -7.473 8.75792 54183.4 -125247 6.59823e+06 268677 42934.5 -24603.4
3 -3.36721 -7.88382 10.0771 -288095 187394 6.60133e+06 -145921 36941.9 -16764.2
3 -1.32704 -8.09657 8.71053 -150029 70245.6 6.58735e+06 -240262 34311.7 -38553.8
3 -1.94248 -8.21456 10.0298 -144162 22646.1 6.5855e+06 271433 33603.6 -31265.1
3 0.0471973 -7.84724 8.71508 -246515 178185 6.57927e+06 161581 34309.8 -24801.9
3 0.686293 -7.74536 10.0747 -30258.6 -67079.5 6.59311e+06 -258895 30521.5 -31013.1
3 1.97901 -7.17979 10.0596 -282400 179604 6.59259e+06 18732.7 40179.1 -33895
3 2.53287 -6.90508 8.69773 52920.2 -149293 6.59707e+06 -192602 45787.4 -12302.2
3 3.77603 -6.16161 8.71401 -215121 125462 6.63028e+06 -77066.6 53909.3 13899.9
3 -6.97655 -4.87369 8.76457 263468 -353276 6.57726e+06 -7055.88 44302 -5796.26
3 -6.48454 -5.28132 10.0752 -269274 176439 6.60983e+06 187000 44695.7 1953.01
3 4.22742 -5.61573 10.0545 100080 -141698 6.67026e+06 -86727.6 25406.4 -15777.6
3 5.29477 -4.75748 10.0565 -127747 95757.1 6.66588e+06 -85785.4 1094.59 16684.3
3 -7.58091 -3.61745 8.79986 -108388 6736.68 6.65738e+06 285976 45134.8 -899.321
3 -7.71522 -2.99534 10.1193 180069 -293120 6.67695e+06 -178522 59919 7208.31
3 5.7533 -4.31524 8.72199 142827 -146032 6.67647e+06 -31264 17418.6 42955.9
3 6.66538 -3.2294 8.7262 -97173.1 70900.7 6.69025e+06 -106643 -11090.9 64920.8
3 6.96684 -2.59565 10.0784 159329 -179300 6.70886e+06 60064 -52199.6 56472.2
3 -7.92703 -1.63169 10.1044 66210.6 -188975 6.72857e+06 256469 78465.9 1396.62
3 -7.94305 -0.986524 8.76304 34926.2 -140703 6.71007e+06 -237167 71176.8 7894.97
3 7.72304 -0.704458 8.7893 134854 -187789 6.66958e+06 150707 -70731.6 36619.3
3 7.47658 -1.29147 10.1045 -63669.4 48150.6 6.68912e+06 -140102 -74207 54160.4
3 -5.06897 -6.80622 11.4269 -310579 252922 6.58251e+06 15398.8 49997.4 -15774.6
3 -3.89998 -7.57345 11.4302 52895.5 -123189 6.59591e+06 253986 50389.8 -18507.4
3 -1.33445 -8.28358 11.4095 -168437 96909.9 6.58517e+06 -239156 31302.4 -31814.4
3 0.0437107 -7.99975 11.386 -260953 185664 6.59294e+06 174351 38434.8 -41798.9
3 2.59985 -6.93757 11.3695 78058 -135622 6.57656e+06 -183009 40639.5 -43880.5
3 3.77395 -6.02525 11.3738 -200837 142580 6.6498e+06 -83035.6 19559 -33101.5
3 -6.82361 -4.82885 11.4146 266271 -333332 6.61733e+06 -4321.65 61510.9 12289.3
3 -7.42644 -3.57762 11.4707 -90128.5 22580.1 6.68187e+06 284822 69215.8 22153
2 -0.548945 -3.72438 12.4014 676327 -281948 -566016 641083 -320077 596268
2 -1.06855 -2.62239 11.6534 576819 -728355 -148467 777357 136627 -331920
3 5.71648 -4.24778 11.3369 128873 -148572 6.6766e+06 -34020 -31191.6 6404.93
3 6.62889 -3.17304 11.3736 -96751.7 68807.5 6.67615e+06 -121781 -78537.1 25112.7
3 -8.0684 -0.972854 11.4162 40543.8 -162148 6.69069e+06 -237374 54989.6 28155.4
2 -2.45168 -2.35032 11.7175 -122608 180974 354489 -954588 -90153.9 158294
2 -2.63881 -0.900415 11.637 -415364 765370 95024.3 803781 503619 -41163.9
2 -0.309343 -1.3907 11.5087 -1.00759e+06 826532 312492 -301798 51236.9 179677
2 0.94023 -1.28531 12.1886 -244262 857489 -388994 2104.5 -645654 285381
3 7.6146 -0.682889 11.4069 141244 -172256 6.69718e+06 152696 -93987 58509.3
3 -5.55405 -6.38244 12.7714 196016 -252207 6.55759e+06 161495 40442.2 -41136
3 -5.189 -6.88939 14.119 -307176 199226 6.56657e+06 -45465.1 44020 -34911.1
3 -3.30826 -7.79047 12.734 -225697 198323 6.58009e+06 -135197 40940.1 -76270.3
3 -3.86823 -7.55666 14.093 116207 -212563 6.55371e+06 214422 22374 -94633.8
3 -1.28808 -8.1357 14.0584 -37052.3 -32125 6.56637e+06 -251246 45209.1 -74801.8
3 -1.9529 -8.20976 12.7668 -82903.1 47358.3 6.58075e+06 268429 51741.8 -66587.9
3 0.702339 -7.77024 12.7334 24491.7 -54144.4 6.56447e+06 -231961 38931.7 -82692.7
3 0.118829 -7.93 14.0769 -138610 47712.6 6.57256e+06 226511 64899.1 -75207.7
3 2.03052 -7.27461 12.7238 -232429 203336 6.55878e+06 34464.9 58517 -85339.3
3 2.54329 -6.88699 14.1033 129220 -201977 6.55545e+06 -92917.6 45070.9 -101729
3 3.75046 -6.10429 14.0799 -212894 136323 6.6132e+06 14626.2 32682.9 -87544.2
3 -6.51068 -5.35324 12.7472 -244830 188724 6.59354e+06 184456 39054.1 -8635.75
3 -6.98183 -4.89141 14.1177 217297 -325295 6.57751e+06 -76085.5 39688 -18572.7
2 -0.672942 -4.66246 14.5006 812146 -580377 -241621 -263853 558431 634752
2 -1.41445 -4.41531 13.292 -923304 599710 593596 -310004 -127210 -315543
2 0.672425 -4.18149 14.3246 -380153 482673 -52761 532063 -773048 -533.039
3 4.20295 -5.61814 12.7335 125239 -112638 6.62906e+06 -76083.3 17543.4 -76565.8
3 5.29531 -4.75148 12.6614 -85054 112422 6.64539e+06 -104879 -33088.3 -26168.2
3 -7.61375 -2.95637 12.7866 190679 -256626 6.65706e+06 -177808 41899.6 37266.6
3 -7.6246 -3.63163 14.1067 -162987 70553.7 6.60633e+06 240943 34183.5 7151.04
2 -4.34001 -2.42795 13.3912 -7989.21 -673434 799850 659565 -169089 -275615
2 -3.35865 -3.06684 12.5511 621304 372950 -441018 -502333 91333.9 689474
2 -2.78475 -4.10881 13.3446 -349241 553290 311470 332736 522126 -658457
2 0.70964 -3.5584 13.0275 -159142 -159078 484854 -831192 488629 39880.2
2 1.55691 -2.4557 12.8626 573458 -540368 324640 -444227 247317 -700950
3 5.68962 -4.23534 14.0605 163553 -139670 6.6197e+06 -31697.2 -23461.4 -23165.5
3 6.56465 -3.09305 14.0706 -41981.9 62499.2 6.65741e+06 -114456 -74819.3 6414.8
3 6.84612 -2.53789 12.7609 158461 -191916 6.66944e+06 48537.6 -92189.6 20728.7
3 -7.91008 -1.56673 12.7883 52799.7 -153221 6.67598e+06 247618 16376.2 39593.5
3 -7.83728 -0.95573 14.1369 -9813.84 -3346.81 6.65621e+06 -248247 13239.2 12749.7
2 -4.43787 -1.02908 13.4329 -25603.1 -674807 476213 -244262 -391214 -694464
2 1.98211 -0.453466 14.0545 255757 609231 -616375 -511483 -346579 -536624
2 2.21525 -1.88805 14.0621 74612.4 -25347.9 339038 560429 -141913 761802
3 7.34831 -1.22314 12.762 -56526 18434.2 6.66786e+06 -142770 -110142 34106.7
3 7.53114 -0.598304 14.0939 160276 -147670 6.64667e+06 141489 -88677.1 32694
3 -5.61652 -6.3908 15.4984 200531 -249220 6.57684e+06 125080 59906.6 -16486.3
3 -3.3031 -7.74427 15.3924 -202600 81673.7 6.58034e+06 -196260 36886.4 -34794.6
3 -1.91516 -8.04936 15.4297 -31502.5 -84874.1 6.58603e+06 247179 50710.3 -21970.9
3 0.656786 -7.67168 15.4343 58737.9 -156790 6.58736e+06 -174254 57890.4 -19175.8
3 1.9671 -7.13391 15.3926 -217105 128764 6.59069e+06 111957 33004.3 -40581.6
3 -6.59771 -5.38383 15.4796 -242800 165760 6.5645e+06 128597 87090.4 -9996.88
2 -3.43621 -4.2051 14.6568 301459 -714697 354058 245571 -542809 615323
2 -2.69701 -4.51191 15.8136 -405256 48096.6 161802 -114760 -1.00489e+06 126999
2 -1.27766 -4.87701 15.7232 557584 -128671 -828171 85619.5 693129 -159994
3 4.2489 -5.64684 15.3794 92125.2 -145749 6.60098e+06 -38960.7 -6014.41 -35062.2
3 5.32288 -4.77032 15.3766 -105601 104605 6.60911e+06 -86911.9 -17387.8 -38807.4
3 -7.7761 -3.01257 15.4629 110144 -154635 6.59114e+06 -184768 46091.3 -1182.56
2 -4.40319 -3.11157 14.72 -110013 598722 -647551 -280401 604522 -128636
2 -4.49236 -2.41038 15.9146 59702.5 413332 -541908 -480188 -342754 -596181
2 1.3375 -3.70331 15.453 342587 229565 -650441 275252 -388985 -653970
2 0.782556 -3.81084 16.7892 -334622 -694967 841314 -611286 86151.2 272126
2 2.12449 -2.51637 15.333 136094 130595 72835.6 -178100 528891 861021
3 6.79593 -2.44603 15.4345 177635 -148890 6.64017e+06 48715.6 -58708.3 8570.38
3 -7.8358 -1.56443 15.4685 36086.8 -38267.5 6.65642e+06 245843 33157.5 -2196.9
2 -4.55857 -0.271787 14.6429 -268225 -88512.2 -148070 -97637.5 503447 868422
2 -4.65084 -0.948417 15.8963 -116273 -242368 240268 624642 -205890 778375
2 2.00622 -1.77268 16.5484 292267 -479168 675601 -299155 -481720 -671702
3 7.44979 -1.1836 15.4313 -47811.7 63194.3 6.65398e+06 -128719 -98856.6 13321.9
3 -5.15056 -6.8032 16.7915 -290664 256758 6.60476e+06 -3356.2 45295.6 -32107.8
3 -5.5034 -6.35587 18.1181 212128 -271532 6.63567e+06 176060 26379 -37325.2
3 -3.96154 -7.63281 16.7531 102992 -144282 6.59101e+06 232679 43029.7 763.395
3 -3.33197 -7.83693 18.1237 -304547 218754 6.60137e+06 -129147 54569.5 -31540.9
3 -1.9259 -7.978 18.1162 -149919 56236.9 6.59498e+06 273114 59223.7 -32179.9
3 -1.27637 -7.98739 16.8243 -94443.2 43846.2 6.5618e+06 -234602 72874.3 6956.26
3 0.146285 -7.81175 16.7808 -190491 130230 6.60074e+06 188843 51180.9 -3809.71
3 0.798179 -7.79425 18.1072 -21936.6 -44497.4 6.63251e+06 -239100 58523 -30677.9
3 2.05012 -7.08998 18.0285 -272614 224299 6.6412e+06 27960.6 58525.8 -62034.9
3 2.52212 -6.74725 16.7158 135151 -148729 6.60639e+06 -131873 20201 -22425.4
3 -6.89481 -4.86014 16.8211 249764 -322681 6.58843e+06 -30836.5 52898.2 -13088.5
3 -6.50207 -5.35911 18.0932 -231876 169620 6.60774e+06 189140 26537.4 -25182.3
2 -2.87352 -3.85226 17.0923 -339219 135242 536420 328256 904157 -96299.6
2 -0.553214 -4.29036 16.8347 -1.17809e+06 108109 898102 19004.4 -145199 111343
2 -1.54632 -3.66563 17.6854 978279 177251 -839268 -161646 -421375 -308146
3 3.73767 -6.02065 16.7056 -181001 165855 6.60887e+06 -20472.8 11743.8 -33969.4
3 4.19195 -5.4752 18.0333 144350 -158450 6.62258e+06 -102450 33707 -49847.2
3 5.29665 -4.63359 18.0328 -110437 86560.7 6.64625e+06 -102372 21652.2 -42441.2
3 -7.84501 -2.97972 18.1998 208899 -265777 6.61531e+06 -165383 53895.4 -37330.3
3 -7.53588 -3.5778 16.8281 -117435 39244.2 6.57808e+06 260865 75026.7 -31231.4
2 -3.77087 -2.73431 17.1035 369309 -796320 797681 476676 354538 19764.9
2 -1.22701 -2.42155 18.3449 1.15077e+06 -775399 173008 -340380 -269969 -352330
2 1.16193 -2.53597 17.4648 467391 782556 -853515 326644 306096 12834.9
2 0.108504 -1.92619 18.1482 -239970 616089 162114 826291 400187 -102542
3 5.73045 -4.12496 16.7475 179157 -136105 6.61829e+06 -24040 -7912.44 -28619.5
3 6.62465 -3.03767 16.7428 -48144 81794.2 6.6489e+06 -96993.9 -41622.1 -8994.33
3 6.96501 -2.53091 18.0719 149862 -158100 6.65623e+06 59269.8 -54215.8 8264.92
3 -8.02099 -1.58105 18.164 75784.9 -161474 6.68997e+06 260443 49083.3 -61511.5
3 -7.97119 -0.958166 16.8263 15242.4 -35547.7 6.69578e+06 -233264 64987.3 -12932.2
2 -3.43233 -1.52893 17.8118 -149829 1.06095e+06 -295824 16481 -628133 335164
2 -3.95893 -0.362261 17.0485 574639 -316569 247911 -417592 149722 -750261
2 -0.00242533 -0.457196 18.1563 -136616 -28541.1 363508 -980252 -108536 139875
2 0.82564 0.316562 17.3023 539939 163799 -415708 -506333 55357.7 714720
2 1.84021 -0.368585 16.5026 37904.6 -495403 803172 620355 -178681 -299242
3 7.34633 -1.18168 18.0861 -56941.9 46748.1 6.66205e+06 -120156 -69056.3 9486.04
3 7.56978 -0.54553 16.7533 143081 -110480 6.64309e+06 137835 -88377.7 18643.2
3 -5.07925 -6.81238 19.5008 -338219 221818 6.63366e+06 46478.4 42448 -47528.1
3 -3.88563 -7.5915 19.4622 20173.8 -146396 6.62821e+06 277275 60884.4 -49617.6
3 -1.26101 -7.9081 19.4337 -192516 60933.3 6.59895e+06 -243791 47359.5 -43768
3 0.142315 -7.8299 19.3981 -270621 163377 6.64581e+06 163549 70150.3 -59601
3 2.65037 -6.805 19.3778 83313.3 -164123 6.65262e+06 -192819 56027.2 -63827.3
3 3.8298 -6.02839 19.3718 -230320 145961 6.65642e+06 -86427.7 34737.5 -59895.4
3 -6.94589 -4.88855 19.4115 228725 -344121 6.63565e+06 81.9986 38280.7 -38578.7
3 -7.49735 -3.56233 19.4935 -113863 2697.91 6.65052e+06 285745 55650.3 -41473.7
3 5.83056 -4.20198 19.3906 141693 -182010 6.67923e+06 -26410.4 -15833.9 -56840.2
3 6.62221 -3.0455 19.3952 -84083.8 21462.2 6.64392e+06 -107414 -51040.3 -26442.7
3 -8.01391 -0.920907 19.487 34290.6 -182706 6.7098e+06 -245203 30970.3 -43077.6
2 -2.16745 -1.34367 18.41 -903376 889349 375928 -321100 71328.3 179200
2 -1.36564 -0.122547 18.2429 592242 -708014 -69795.8 767919 99105.1 -299937
3 7.53039 -0.551016 19.4561 107566 -148872 6.67177e+06 129036 -62948.1 10581.6
3 -5.11144 -6.77994 22.1435 -330669 258260 6.60662e+06 42043.2 53619.5 -29817.4
3 -5.5352 -6.34625 20.8454 180963 -305657 6.62147e+06 169915 40564.6 -40061.1
3 -3.95 -7.56172 22.1835 43078.2 -112190 6.59851e+06 275906 66851.5 -30567
3 -3.31335 -7.92942 20.8428 -322606 197757 6.63267e+06 -137163 58504.6 -33715
3 -1.88926 -7.99957 20.8261 -163698 27538.6 6.60535e+06 269944 64947.3 -34810.9
3 -1.22835 -7.85706 22.0693 -156302 99957.6 6.61373e+06 -240040 47016.7 -47992.4
3 0.170579 -7.70896 22.0724 -233062 175546 6.62133e+06 163494 60542 -64459.3
3 0.781571 -7.66338 20.7091 -36932.2 -55415.1 6.64735e+06 -261097 45627.1 -68799.5
3 2.06395 -7.06485 20.7142 -312761 206844 6.65698e+06 33173.7 50201.2 -50352.5
3 2.62752 -6.74578 22.0127 112398 -132114 6.65668e+06 -175033 26317.3 -78215
3 3.82042 -5.97871 22.0022 -183981 173300 6.66624e+06 -72760.2 3987.91 -76338.2
3 -6.54781 -5.45257 20.7946 -265066 163854 6.6335e+06 197874 39955.4 -33403.3
3 -6.97217 -4.87948 22.1225 243844 -324752 6.62331e+06 -5865.51 39789.3 -32886
3 4.36154 -5.64211 20.7045 120970 -159889 6.68055e+06 -78773.1 143.695 -66524.2
3 5.45309 -4.6958 20.6695 -139601 94245.5 6.66071e+06 -108886 -37075.2 -61207.4
3 5.85918 -4.23643 22.0232 142201 -164437 6.6744e+06 -25384.9 -45307 -51944.8
3 -7.80835 -2.98414 20.8572 184747 -278720 6.6667e+06 -158856 64249.6 -51156.4
3 -7.62198 -3.62763 22.154 -92285.7 24121.7 6.65849e+06 287659 53570.2 -51763.6
1 -2.26953 -2.58256 22.7594 958892 -1.04179e+06 131553 146589 -96097.5 -38979.8
3 6.73595 -3.13147 22.0537 -66650.8 29191.6 6.66111e+06 -113939 -44044.3 -70706.5
3 7.03253 -2.53818 20.7209 111669 -203402 6.67245e+06 39499.3 -55708.6 -45684.9
3 -7.9659 -1.61093 20.8148 82847.3 -169186 6.72328e+06 263469 51264.7 -33969.4
3 -8.05873 -0.928694 22.138 61209.1 -106950 6.72167e+06 -249044 60444 -51577.9
1 -1.20919 -1.79941 22.2446 -917720 909957 247553 370814 49184.8 17513.3
1 -1.60455 -0.399494 22.3292 501896 -458818 265493 -937542 -170535 -67150.3
3 7.48217 -1.19189 20.7251 -88037.4 1541.54 6.66844e+06 -130844 -64693.7 -41369
3 7.59974 -0.512304 22.0651 117851 -161010 6.67599e+06 130474 -69118.9 -68556
3 -5.55168 -6.38091 23.4802 228899 -240647 6.57165e+06 133742 38900.8 -54686.7
3 -3.23936 -7.65646 23.4688 -214541 192525 6.60425e+06 -157012 35314.2 -49064.4
3 -1.82757 -7.93785 23.429 -34817.7 -11475.4 6.61259e+06 248184 62744.7 -79367.9
3 0.849075 -7.64909 23.4141 70024.6 -93703.6 6.62301e+06 -214328 45564 -93705.7
3 2.13695 -7.03944 23.3407 -222010 198463 6.64185e+06 93481 65273.5 -100783
3 -6.65778 -5.50629 23.528 -230055 211451 6.60236e+06 154640 6983.84 -27973.5
3 4.47455 -5.68454 23.3767 148391 -133332 6.63463e+06 -80492.6 25124.8 -103599
3 5.45179 -4.69452 23.3737 -87818.5 119755 6.66545e+06 -100327 -24285.1 -66252.7
3 -7.84435 -3.08689 23.489 152833 -199635 6.65522e+06 -185472 35679.9 -52169.3
1 -3.81829 -3.23553 24.9933 -10188.4 -149078 609818 570200 201364 -739819
1 -2.77072 -4.10801 24.6032 -864015 517263 723203 282736 -266429 -297309
1 -1.96485 -3.74124 23.4664 1.0921e+06 -193021 -473033 166350 -210834 647140
1 -0.613676 -4.0521 23.7785 -456109 381882 525269 -517326 623685 -124917
1 1.66699 -3.09862 24.064 428925 -140684 31669 473584 54792.1 955829
1 0.458317 -3.35076 23.2478 327484 -411789 616150 -611672 154923 -575354
3 6.99677 -2.4936 23.4033 172265 -164763 6.66273e+06 41449.6 -43412.6 -94994.4
3 -8.12222 -1.65624 23.5011 34746.5 -76016.4 6.69045e+06 252890 41368.3 -60666.4
1 -3.32357 -1.71654 23.1433 -679638 759426 84635.1 -759994 138968 163989
1 -2.95676 -0.342829 22.8773 162902 -12375 257341 953503 172790 -194849