LAMMPS (23 Jun 2022 - Update 1)
OMP_NUM_THREADS environment is not set. Defaulting to 1 thread. (../comm.cpp:98)
  using 1 OpenMP thread(s) per MPI task
Reading data file ...
  orthogonal box = (-25.0214 -25.0214 -39.404249) to (25.0214 25.0214 76.989751)
  1 by 2 by 4 MPI processor grid
  reading atoms ...
  3024 atoms
  read_data CPU = 0.060 seconds
Reading airebo potential file CH.airebo with DATE: 2011-10-25
Reading airebo potential file CH.airebo with DATE: 2011-10-25
Reading airebo potential file CH.airebo with DATE: 2011-10-25
Neighbor list info ...
  update every 1 steps, delay 0 steps, check yes
  max neighbors/atom: 2000, page size: 100000
  master list distance cutoff = 13.2
  ghost atom cutoff = 13.2
  binsize = 6.6, bins = 8 8 18
  6 neighbor lists, perpetual/occasional/extra = 6 0 0
  (1) pair airebo, perpetual, skip from (5)
      attributes: full, newton on, ghost
      pair build: skip/ghost
      stencil: none
      bin: none
  (2) pair airebo, perpetual, skip from (5)
      attributes: full, newton on, ghost
      pair build: skip/ghost
      stencil: none
      bin: none
  (3) pair airebo, perpetual, skip from (5)
      attributes: full, newton on, ghost
      pair build: skip/ghost
      stencil: none
      bin: none
  (4) pair lj/cut, perpetual, skip from (6)
      attributes: half, newton on
      pair build: skip
      stencil: none
      bin: none
  (5) neighbor class addition, perpetual
      attributes: full, newton on, ghost
      pair build: full/bin/ghost
      stencil: full/ghost/bin/3d
      bin: standard
  (6) neighbor class addition, perpetual
      attributes: half, newton on
      pair build: half/bin/atomonly/newton
      stencil: half/bin/3d
      bin: standard
Setting up sd style minimization ...
  Unit style    : metal
  Current step  : 0
Per MPI rank memory allocation (min/avg/max) = 10.25 | 10.25 | 10.25 Mbytes
   Step          Temp          E_pair         E_mol          TotEng         Press     
         0   0             -20987.364      0             -20987.364      27882.702    
        14   0             -21946.82       0             -21946.82       631.53972    
Loop time of 0.150193 on 8 procs for 14 steps with 3024 atoms

99.0% CPU use with 8 MPI tasks x 1 OpenMP threads

Minimization stats:
  Stopping criterion = energy tolerance
  Energy initial, next-to-last, final = 
     -20987.3641320402  -21945.2476008186  -21946.8197421693
  Force two-norm initial, final = 775.07538 18.985723
  Force max component initial, final = 108.2718 2.6933237
  Final line search alpha, max atom move = 0.068300328 0.18395489
  Iterations, force evaluations = 14 23

MPI task timing breakdown:
Section |  min time  |  avg time  |  max time  |%varavg| %total
---------------------------------------------------------------
Pair    | 0.13777    | 0.14246    | 0.14747    |   0.8 | 94.85
Neigh   | 0          | 0          | 0          |   0.0 |  0.00
Comm    | 0.001836   | 0.0062477  | 0.01149    |   4.0 |  4.16
Output  | 0          | 0          | 0          |   0.0 |  0.00
Modify  | 0          | 0          | 0          |   0.0 |  0.00
Other   |            | 0.001482   |            |       |  0.99

Nlocal:            378 ave         390 max         366 min
Histogram: 4 0 0 0 0 0 0 0 0 4
Nghost:           1060 ave        1072 max        1048 min
Histogram: 4 0 0 0 0 0 0 0 0 4
Neighs:              0 ave           0 max           0 min
Histogram: 8 0 0 0 0 0 0 0 0 0

Total # of neighbors = 0
Ave neighs/atom = 0
Neighbor list builds = 0
Dangerous builds = 0
Setting up Verlet run ...
  Unit style    : metal
  Current step  : 14
  Time step     : 0.001
Per MPI rank memory allocation (min/avg/max) = 10.88 | 10.88 | 10.88 Mbytes
   Step          Temp          E_pair         E_mol          TotEng         Press          Volume    
        14   300           -21946.82       0             -21829.594      1061.1052      291483.38    
Loop time of 3.87725e-06 on 8 procs for 0 steps with 3024 atoms

29.0% CPU use with 8 MPI tasks x 1 OpenMP threads

MPI task timing breakdown:
Section |  min time  |  avg time  |  max time  |%varavg| %total
---------------------------------------------------------------
Pair    | 0          | 0          | 0          |   0.0 |  0.00
Neigh   | 0          | 0          | 0          |   0.0 |  0.00
Comm    | 0          | 0          | 0          |   0.0 |  0.00
Output  | 0          | 0          | 0          |   0.0 |  0.00
Modify  | 0          | 0          | 0          |   0.0 |  0.00
Other   |            | 3.877e-06  |            |       |100.00

Nlocal:            378 ave         382 max         374 min
Histogram: 2 0 0 2 0 0 2 0 0 2
Nghost:           1062 ave        1066 max        1058 min
Histogram: 2 0 0 2 0 0 2 0 0 2
Neighs:              0 ave           0 max           0 min
Histogram: 8 0 0 0 0 0 0 0 0 0

Total # of neighbors = 0
Ave neighs/atom = 0
Neighbor list builds = 0
Dangerous builds = 0
Setting up Verlet run ...
  Unit style    : metal
  Current step  : 0
  Time step     : 0.001
Per MPI rank memory allocation (min/avg/max) = 13.66 | 13.66 | 13.66 Mbytes
   Step         PotEng         KinEng         TotEng           Lx             Ly             Lz      
         0  -21946.82       117.22603     -21829.594      50.0428        50.0428        116.394      
       100  -21929.159      109.75549     -21819.404      50.049422      50.030544      116.4522     
       200  -21935.136      117.50972     -21817.626      50.048933      50.005801      116.51039    
       300  -21932.315      113.89355     -21818.421      50.071508      49.994817      116.56859    
       400  -21935.115      120.33154     -21814.783      50.077017      49.970916      116.62679    
       500  -21927.283      119.23949     -21808.044      50.100107      49.960211      116.68499    
       600  -21926.306      123.86402     -21802.442      50.106991      49.950134      116.74318    
       700  -21917.47       119.84409     -21797.626      50.108428      49.957465      116.80138    
       800  -21908.585      115.67754     -21792.908      50.108008      49.978037      116.85958    
       900  -21902.733      115.55369     -21787.179      50.083353      49.990779      116.91777    
      1000  -21904.782      122.27387     -21782.508      50.068197      50.009226      116.97597    
      1100  -21914.122      130.52289     -21783.599      50.04715       50.020523      117.03417    
      1200  -21913.563      121.07785     -21792.486      50.037091      50.034695      117.09236    
      1300  -21908.043      110.52351     -21797.519      50.021001      50.039934      117.15056    
      1400  -21904.694      111.59465     -21793.099      50.012855      50.052655      117.20876    
      1500  -21905.548      118.62398     -21786.924      50.007503      50.064531      117.26695    
      1600  -21898.869      113.70265     -21785.166      49.996343      50.062725      117.32515    
      1700  -21887.787      107.10485     -21780.682      50.002389      50.069813      117.38335    
      1800  -21896.815      123.04722     -21773.767      50.002278      50.061875      117.44155    
      1900  -21900.984      122.80799     -21778.176      50.010848      50.055421      117.49974    
      2000  -21902.457      119.4185      -21783.038      50.023577      50.043102      117.55794    
      2100  -21909.277      120.76644     -21788.51       50.034756      50.028978      117.61614    
      2200  -21904.54       112.53636     -21792.004      50.0434        50.018819      117.67433    
      2300  -21899.79       112.09721     -21787.693      50.041168      50.007235      117.73253    
      2400  -21897.895      116.71971     -21781.176      50.050911      50.00715       117.79073    
      2500  -21897.365      120.61581     -21776.749      50.045081      50.002346      117.84893    
      2600  -21891.962      117.54506     -21774.417      50.045829      50.005832      117.90712    
      2700  -21895.643      122.43385     -21773.209      50.044503      50.010076      117.96532    
      2800  -21898.548      120.90946     -21777.638      50.03764       50.012209      118.02352    
      2900  -21892.825      113.54552     -21779.279      50.035067      50.016185      118.08171    
      3000  -21895.349      119.22731     -21776.121      50.030308      50.01635       118.13991    
      3100  -21889.985      114.05424     -21775.93       50.029509      50.020163      118.19811    
      3200  -21890.842      115.70476     -21775.137      50.021546      50.018498      118.2563     
      3300  -21888.115      117.02348     -21771.091      50.023389      50.023219      118.3145     
      3400  -21885.074      117.70466     -21767.369      50.020433      50.024005      118.3727     
      3500  -21887.277      119.45715     -21767.82       50.018058      50.024007      118.43089    
      3600  -21886.511      116.56577     -21769.946      50.016904      50.023462      118.48909    
      3700  -21886.068      115.9158      -21770.152      50.014677      50.022527      118.54729    
      3800  -21881.246      114.74407     -21766.502      50.013667      50.02317       118.60549    
      3900  -21880.289      117.47183     -21762.818      50.007359      50.02025       118.66368    
      4000  -21877.757      116.01356     -21761.743      50.007056      50.024382      118.72188    
      4100  -21880.898      121.72304     -21759.175      50.000873      50.02453       118.78008    
      4200  -21881.12       118.30932     -21762.81       49.996948      50.027774      118.83827    
      4300  -21878.866      115.85753     -21763.008      49.993823      50.030846      118.89647    
      4400  -21874.838      115.98416     -21758.854      49.989124      50.02997       118.95467    
      4500  -21869.242      114.84172     -21754.4        49.99067       50.031671      119.01287    
      4600  -21870.635      119.14555     -21751.489      49.989061      50.026691      119.07106    
      4700  -21871.058      117.77202     -21753.286      49.993694      50.025232      119.12926    
      4800  -21873.745      119.06591     -21754.679      49.995347      50.019835      119.18746    
      4900  -21872.4        117.93492     -21754.465      49.996805      50.014321      119.24565    
      5000  -21871.824      117.4864      -21754.338      49.998865      50.009586      119.30385    
      5100  -21867.184      114.25064     -21752.934      49.997825      50.003352      119.36205    
      5200  -21865.709      119.90872     -21745.8        50.000325      50.000929      119.42024    
      5300  -21864.232      119.89846     -21744.333      50.000036      49.998361      119.47844    
      5400  -21861.344      114.53217     -21746.812      49.997531      49.995842      119.53664    
      5500  -21859.44       114.3332      -21745.107      49.996797      49.996565      119.59484    
      5600  -21858.324      118.19975     -21740.124      49.992677      49.996064      119.65303    
      5700  -21856.252      118.8111      -21737.441      49.990142      49.997895      119.71123    
      5800  -21851.593      115.25147     -21736.342      49.985953      49.998008      119.76943    
      5900  -21852.568      116.90123     -21735.667      49.984015      49.999003      119.82762    
      6000  -21854.739      115.41761     -21739.321      49.981787      49.999209      119.88582    
      6100  -21854.361      115.93217     -21738.429      49.977864      49.997679      119.94402    
      6200  -21848.775      115.96855     -21732.806      49.977502      49.996277      120.00221    
      6300  -21850.628      122.04257     -21728.585      49.975846      49.991104      120.06041    
      6400  -21845.868      118.77706     -21727.091      49.976832      49.987386      120.11861    
      6500  -21842.131      116.87888     -21725.252      49.977618      49.983244      120.17681    
      6600  -21840.932      119.26222     -21721.669      49.977858      49.978561      120.235      
      6700  -21840.144      121.28647     -21718.857      49.978452      49.975609      120.2932     
      6800  -21838.773      118.04218     -21720.731      49.976529      49.971952      120.3514     
      6900  -21836.048      114.71652     -21721.332      49.976463      49.970747      120.40959    
      7000  -21836.52       117.72112     -21718.799      49.974448      49.969536      120.46779    
      7100  -21829.505      113.99409     -21715.511      49.971364      49.969394      120.52599    
      7200  -21829.218      117.62506     -21711.593      49.967352      49.968832      120.58418    
      7300  -21827.677      117.45871     -21710.218      49.963294      49.968902      120.64238    
      7400  -21828.8        119.43267     -21709.367      49.958201      49.96867       120.70058    
      7500  -21825.531      117.40844     -21708.122      49.954286      49.969003      120.75877    
      7600  -21822.879      117.75678     -21705.122      49.94967       49.969159      120.81697    
      7700  -21818.805      119.11064     -21699.694      49.944262      49.968755      120.87517    
      7800  -21818.071      119.93023     -21698.14       49.941275      49.969715      120.93337    
      7900  -21817.832      118.18507     -21699.647      49.936596      49.968432      120.99156    
      8000  -21816.32       118.46116     -21697.859      49.933178      49.968275      121.04976    
      8100  -21809.615      115.11328     -21694.501      49.928757      49.966894      121.10796    
      8200  -21808.618      118.99029     -21689.627      49.925158      49.965157      121.16615    
      8300  -21805.618      119.32887     -21686.29       49.923649      49.963443      121.22435    
      8400  -21804.469      117.4716      -21686.997      49.920628      49.959405      121.28255    
      8500  -21805.192      117.09808     -21688.094      49.919919      49.956257      121.34074    
      8600  -21801.417      116.83417     -21684.582      49.918668      49.95124       121.39894    
      8700  -21800.041      119.76721     -21680.274      49.917995      49.946631      121.45714    
      8800  -21794.972      117.71889     -21677.253      49.917799      49.94135       121.51534    
      8900  -21796.77       120.26251     -21676.508      49.918171      49.935731      121.57353    
      9000  -21794.382      116.27829     -21678.103      49.92024       49.93116       121.63173    
      9100  -21790.751      114.29008     -21676.461      49.918146      49.92477       121.68993    
      9200  -21786.488      116.38061     -21670.108      49.916575      49.920289      121.74812    
      9300  -21783.8        117.48502     -21666.315      49.913289      49.917084      121.80632    
      9400  -21784.829      118.88199     -21665.947      49.908236      49.915358      121.86452    
      9500  -21780.131      114.83958     -21665.292      49.902473      49.915276      121.92272    
      9600  -21776.579      116.65365     -21659.925      49.896804      49.916206      121.98091    
      9700  -21773.931      119.57036     -21654.361      49.889792      49.917157      122.03911    
      9800  -21771.98       119.51007     -21652.47       49.883419      49.91714       122.09731    
      9900  -21769.359      118.11752     -21651.241      49.878396      49.917276      122.1555     
     10000  -21767.162      116.64089     -21650.522      49.871288      49.916857      122.2137     
     10100  -21762.381      113.07377     -21649.307      49.86345       49.916489      122.2719     
     10200  -21760.432      114.94249     -21645.489      49.85729       49.916867      122.33009    
     10300  -21758.94       119.91191     -21639.028      49.851506      49.916913      122.38829    
     10400  -21754.354      118.93629     -21635.418      49.844992      49.915516      122.44649    
     10500  -21750.444      118.129       -21632.315      49.838484      49.913271      122.50468    
     10600  -21751.279      119.13888     -21632.14       49.834346      49.911105      122.56288    
     10700  -21747.156      114.04976     -21633.107      49.829568      49.907273      122.62108    
     10800  -21746.22       116.556       -21629.664      49.825443      49.903076      122.67928    
     10900  -21743.531      119.44701     -21624.084      49.822379      49.899782      122.73747    
     11000  -21737.445      117.37763     -21620.068      49.818187      49.896214      122.79567    
     11100  -21733.742      115.9649      -21617.777      49.813046      49.892281      122.85387    
     11200  -21734.177      115.86373     -21618.314      49.808989      49.889202      122.91206    
     11300  -21732.218      114.21438     -21618.003      49.805105      49.885139      122.97026    
     11400  -21730.98       115.71006     -21615.27       49.800607      49.880949      123.02846    
     11500  -21727.975      118.94085     -21609.034      49.795084      49.877273      123.08666    
     11600  -21724.592      120.58215     -21604.01       49.789556      49.873616      123.14485    
     11700  -21720.846      119.01385     -21601.832      49.783619      49.871052      123.20305    
     11800  -21716.78       116.12762     -21600.652      49.776496      49.867452      123.26125    
     11900  -21716.372      117.47124     -21598.901      49.770186      49.86499       123.31944    
     12000  -21712.237      116.95996     -21595.277      49.762308      49.861807      123.37764    
     12100  -21706.866      115.99311     -21590.873      49.75428       49.859445      123.43584    
     12200  -21702.326      116.85347     -21585.472      49.746325      49.857631      123.49403    
     12300  -21700.11       119.44935     -21580.661      49.737688      49.855981      123.55223    
     12400  -21696.425      115.89978     -21580.525      49.729707      49.853728      123.61043    
     12500  -21695.265      114.87821     -21580.387      49.722095      49.849891      123.66863    
     12600  -21695.717      117.46193     -21578.255      49.716223      49.845408      123.72682    
     12700  -21687.813      115.61526     -21572.198      49.710087      49.839095      123.78502    
     12800  -21683.011      117.51986     -21565.491      49.70474       49.83378       123.84322    
     12900  -21681.381      119.19569     -21562.185      49.698259      49.829412      123.90141    
     13000  -21679.569      118.64136     -21560.927      49.689573      49.825784      123.95961    
     13100  -21676.481      116.42345     -21560.058      49.680725      49.823385      124.01781    
     13200  -21672.512      115.59401     -21556.918      49.670343      49.819318      124.076      
     13300  -21668.844      115.82424     -21553.019      49.661278      49.81586       124.1342     
     13400  -21668.49       118.84336     -21549.646      49.652468      49.811982      124.1924     
     13500  -21663.934      116.32267     -21547.611      49.644203      49.807346      124.2506     
     13600  -21660.421      116.06914     -21544.352      49.635326      49.801569      124.30879    
     13700  -21657.309      119.01348     -21538.296      49.627523      49.797711      124.36699    
     13800  -21649.559      117.1287      -21532.43       49.617674      49.791902      124.42519    
     13900  -21650.419      120.19918     -21530.22       49.606942      49.78562       124.48338    
     14000  -21645.825      115.21663     -21530.608      49.597732      49.780794      124.54158    
     14100  -21646.472      118.23217     -21528.24       49.585855      49.773296      124.59978    
     14200  -21641.028      116.84027     -21524.188      49.576843      49.768508      124.65797    
     14300  -21634.776      115.9023      -21518.874      49.565652      49.761762      124.71617    
     14400  -21630.663      117.53908     -21513.124      49.555782      49.756961      124.77437    
     14500  -21625.208      115.83655     -21509.371      49.545048      49.751591      124.83257    
     14600  -21625.67       118.62696     -21507.044      49.533861      49.744169      124.89076    
     14700  -21621.674      115.11086     -21506.563      49.525219      49.738628      124.94896    
     14800  -21619.922      116.30574     -21503.616      49.512593      49.728932      125.00716    
     14900  -21612.511      115.20625     -21497.305      49.503158      49.723161      125.06535    
     15000  -21609.871      120.34544     -21489.525      49.490177      49.715435      125.12355    
     15100  -21606.379      118.9945      -21487.384      49.476938      49.709586      125.18175    
     15200  -21602.166      117.03113     -21485.135      49.462154      49.704102      125.23994    
     15300  -21599.209      116.59853     -21482.61       49.445524      49.696501      125.29814    
     15400  -21598.302      115.71004     -21482.592      49.430851      49.691483      125.35634    
     15500  -21592.15       112.71189     -21479.438      49.414057      49.683772      125.41454    
     15600  -21586.585      115.80151     -21470.783      49.399195      49.677866      125.47273    
     15700  -21584.219      118.07469     -21466.144      49.383778      49.670258      125.53093    
     15800  -21581.589      118.05424     -21463.535      49.367613      49.661911      125.58913    
     15900  -21578.25       116.71704     -21461.533      49.352441      49.655416      125.64732    
     16000  -21574.218      116.79192     -21457.426      49.334708      49.64613       125.70552    
     16100  -21569.206      119.95895     -21449.247      49.318903      49.63883       125.76372    
     16200  -21563.929      119.23827     -21444.691      49.302555      49.630134      125.82191    
     16300  -21560.07       116.63072     -21443.439      49.286731      49.620503      125.88011    
     16400  -21558.418      116.88765     -21441.53       49.272747      49.609995      125.93831    
     16500  -21554.67       116.75893     -21437.911      49.257685      49.596541      125.9965     
     16600  -21549.591      116.60944     -21432.981      49.243208      49.585082      126.0547     
     16700  -21544.942      118.50996     -21426.432      49.225058      49.570635      126.1129     
     16800  -21540.524      122.82771     -21417.697      49.207638      49.558872      126.1711     
     16900  -21533.137      118.33134     -21414.806      49.18912       49.547091      126.22929    
     17000  -21532.223      118.4235      -21413.799      49.169172      49.535007      126.28749    
     17100  -21527.635      115.51399     -21412.121      49.149878      49.52494       126.34569    
     17200  -21525.396      116.24645     -21409.15       49.128348      49.513444      126.40388    
     17300  -21522.168      118.02011     -21404.148      49.106703      49.504168      126.46208    
     17400  -21514.083      118.2259      -21395.857      49.083092      49.493855      126.52028    
     17500  -21508.734      117.11883     -21391.615      49.059322      49.48502       126.57847    
     17600  -21507.42       117.31823     -21390.102      49.035388      49.475559      126.63667    
     17700  -21503.276      115.36385     -21387.912      49.011307      49.464226      126.69487    
     17800  -21501.454      117.87638     -21383.577      48.988454      49.453516      126.75307    
     17900  -21494.392      116.33311     -21378.059      48.965588      49.440761      126.81126    
     18000  -21490.629      120.30614     -21370.323      48.942888      49.424937      126.86946    
     18100  -21486.904      121.47829     -21365.425      48.922188      49.410066      126.92766    
     18200  -21482.21       115.41024     -21366.8        48.900591      49.392448      126.98585    
     18300  -21479.231      115.61892     -21363.612      48.880461      49.376413      127.04405    
     18400  -21472.822      115.00713     -21357.815      48.859785      49.359288      127.10225    
     18500  -21469.248      118.15187     -21351.096      48.838911      49.341858      127.16045    
     18600  -21463.787      117.79919     -21345.988      48.817904      49.325011      127.21864    
     18700  -21462.134      119.10139     -21343.032      48.794915      49.30698       127.27684    
     18800  -21457.394      115.08565     -21342.309      48.772398      49.291249      127.33504    
     18900  -21455.441      116.64014     -21338.801      48.748307      49.274759      127.39323    
     19000  -21449.293      117.02881     -21332.264      48.724412      49.259755      127.45143    
     19100  -21440.186      115.98724     -21324.199      48.699935      49.244967      127.50963    
     19200  -21437.97       118.11048     -21319.859      48.674792      49.229795      127.56782    
     19300  -21435.676      118.42267     -21317.254      48.649783      49.216171      127.62602    
     19400  -21432.062      117.93169     -21314.13       48.623239      49.201038      127.68422    
     19500  -21429.071      117.78586     -21311.285      48.596848      49.186813      127.74242    
     19600  -21423.596      114.12833     -21309.467      48.569059      49.172118      127.80061    
     19700  -21424.049      114.92165     -21309.128      48.540926      49.157688      127.85881    
     19800  -21418.78       112.254       -21306.526      48.513993      49.144628      127.91701    
     19900  -21411.666      114.20293     -21297.463      48.487102      49.128946      127.9752     
     20000  -21407.078      117.2576      -21289.82       48.462468      49.112382      128.0334     
     20100  -21400.039      117.70971     -21282.329      48.439748      49.095649      128.0916     
     20200  -21392.686      117.19854     -21275.487      48.417869      49.076559      128.14979    
     20300  -21388.671      118.32428     -21270.347      48.397619      49.057395      128.20799    
     20400  -21389.733      119.8447      -21269.889      48.376893      49.038063      128.26619    
     20500  -21382.249      114.58678     -21267.662      48.35606       49.019594      128.32439    
     20600  -21378.676      116.08878     -21262.587      48.33546       49.002497      128.38258    
     20700  -21375.256      120.06482     -21255.191      48.313464      48.984092      128.44078    
     20800  -21367.001      118.08744     -21248.914      48.292599      48.96847       128.49898    
     20900  -21364.254      118.95914     -21245.295      48.269009      48.9514        128.55717    
     21000  -21363.791      117.86964     -21245.921      48.246019      48.936549      128.61537    
     21100  -21355.645      114.93375     -21240.712      48.222605      48.922303      128.67357    
     21200  -21352.307      119.52935     -21232.778      48.198746      48.908078      128.73176    
     21300  -21344.547      117.42406     -21227.123      48.176278      48.89637       128.78996    
     21400  -21339.774      117.08833     -21222.685      48.153239      48.882346      128.84816    
     21500  -21336.016      115.48056     -21220.536      48.131573      48.868604      128.90636    
     21600  -21332.956      114.13095     -21218.825      48.110346      48.854301      128.96455    
     21700  -21328.151      115.92259     -21212.228      48.090709      48.839903      129.02275    
     21800  -21320.186      116.12037     -21204.066      48.072029      48.825204      129.08095    
     21900  -21317.27       118.47113     -21198.799      48.053837      48.809662      129.13914    
     22000  -21312.886      118.299       -21194.587      48.035667      48.794333      129.19734    
     22100  -21305.457      114.45339     -21191.004      48.017783      48.779463      129.25554    
     22200  -21305.379      115.26146     -21190.117      48.000245      48.764247      129.31373    
     22300  -21298.933      112.47536     -21186.458      47.984082      48.750378      129.37193    
     22400  -21290.49       113.12609     -21177.364      47.968262      48.736066      129.43013    
     22500  -21287.656      117.51946     -21170.136      47.952992      48.722073      129.48833    
     22600  -21280.112      117.11207     -21163          47.937746      48.708462      129.54652    
     22700  -21278.152      120.46773     -21157.684      47.921899      48.695451      129.60472    
     22800  -21270.679      115.01234     -21155.667      47.906205      48.683223      129.66292    
     22900  -21269.939      116.44708     -21153.492      47.889703      48.670771      129.72111    
     23000  -21263.506      115.38055     -21148.126      47.874352      48.660903      129.77931    
     23100  -21259.038      118.01015     -21141.028      47.85748       48.65065       129.83751    
     23200  -21253.294      120.98382     -21132.311      47.840701      48.641465      129.8957     
     23300  -21242.475      121.42251     -21121.052      47.825422      48.633104      129.9539     
     23400  -21238.346      119.76059     -21118.585      47.809177      48.621582      130.0121     
     23500  -21237.216      119.08421     -21118.132      47.795975      48.611717      130.07029    
     23600  -21231.556      115.24173     -21116.315      47.782515      48.600325      130.12849    
     23700  -21230.496      117.32884     -21113.167      47.769259      48.589521      130.18669    
     23800  -21226.225      117.77166     -21108.453      47.756921      48.579717      130.24489    
     23900  -21218.188      117.37967     -21100.808      47.743457      48.569014      130.30308    
     24000  -21211.137      118.92643     -21092.211      47.73198       48.560076      130.36128    
     24100  -21206          118.75433     -21087.246      47.719258      48.549664      130.41948    
     24200  -21199.072      114.71519     -21084.357      47.707679      48.540803      130.47767    
     24300  -21196.674      115.10017     -21081.574      47.696717      48.532212      130.53587    
     24400  -21192.761      116.57964     -21076.181      47.684283      48.522745      130.59407    
     24500  -21185.021      115.42064     -21069.6        47.673996      48.515035      130.65226    
     24600  -21181.8        119.37555     -21062.424      47.662465      48.50612       130.71046    
     24700  -21173.134      117.10656     -21056.028      47.652224      48.498372      130.76866    
     24800  -21168.501      117.25353     -21051.247      47.64178       48.489597      130.82686    
     24900  -21169.198      119.28175     -21049.916      47.631219      48.480802      130.88505    
     25000  -21162.755      116.16765     -21046.588      47.621617      48.472389      130.94325    
     25100  -21156.766      116.88665     -21039.879      47.611238      48.463023      131.00145    
     25200  -21145.657      115.15256     -21030.504      47.602096      48.454867      131.05964    
     25300  -21143.594      119.00071     -21024.593      47.59342       48.447045      131.11784    
     25400  -21134.739      114.197       -21020.542      47.583647      48.438434      131.17604    
     25500  -21131.175      114.67062     -21016.504      47.575302      48.431418      131.23424    
     25600  -21129.233      116.16757     -21013.065      47.566654      48.424493      131.29243    
     25700  -21122.098      113.57455     -21008.524      47.5567        48.417133      131.35063    
     25800  -21116.465      116.54988     -20999.915      47.547891      48.411224      131.40883    
     25900  -21111.887      120.20952     -20991.677      47.538428      48.404444      131.46702    
     26000  -21104.362      117.09826     -20987.264      47.530297      48.398169      131.52522    
     26100  -21101.958      117.54328     -20984.415      47.521678      48.391268      131.58342    
     26200  -21095.823      114.4038      -20981.419      47.513317      48.384446      131.64161    
     26300  -21093.11       117.35185     -20975.758      47.505465      48.378933      131.69981    
     26400  -21084.899      120.77762     -20964.121      47.495132      48.372346      131.75801    
     26500  -21076.248      117.52695     -20958.721      47.486565      48.366466      131.8162     
     26600  -21075.761      119.66388     -20956.097      47.478392      48.360151      131.8744     
     26700  -21070.558      117.8105      -20952.747      47.470873      48.35305       131.9326     
     26800  -21063.51       117.34189     -20946.168      47.4649        48.346412      131.9908     
     26900  -21054.25       117.94019     -20936.309      47.457518      48.338389      132.04899    
     27000  -21050.107      119.88665     -20930.22       47.451468      48.331605      132.10719    
     27100  -21046.944      120.02382     -20926.921      47.443784      48.324866      132.16539    
     27200  -21038.811      115.03042     -20923.781      47.435564      48.318781      132.22358    
     27300  -21036.251      117.39305     -20918.858      47.428102      48.314285      132.28178    
     27400  -21029.081      116.90476     -20912.177      47.419722      48.309443      132.33998    
     27500  -21021.321      119.03795     -20902.283      47.41134       48.304794      132.39818    
     27600  -21016.004      121.5605      -20894.444      47.402519      48.2999        132.45637    
     27700  -21011.726      120.27647     -20891.45       47.394233      48.294811      132.51457    
     27800  -21005.891      118.17502     -20887.716      47.386741      48.290034      132.57277    
     27900  -21003.056      119.53834     -20883.517      47.378468      48.284291      132.63096    
     28000  -20995.162      115.34316     -20879.819      47.371417      48.279091      132.68916    
     28100  -20990.668      115.2647      -20875.403      47.364231      48.273561      132.74736    
     28200  -20982.131      113.89726     -20868.233      47.356118      48.267629      132.80555    
     28300  -20975.931      117.46785     -20858.463      47.3497        48.26298       132.86375    
     28400  -20972.011      119.90916     -20852.102      47.342219      48.256876      132.92195    
     28500  -20965.314      116.40227     -20848.912      47.335439      48.250654      132.98014    
     28600  -20961.179      115.16176     -20846.017      47.329702      48.245323      133.03834    
     28700  -20956.801      115.44438     -20841.357      47.32158       48.238886      133.09654    
     28800  -20948.224      117.93994     -20830.284      47.315513      48.233892      133.15474    
     28900  -20941.1        118.22349     -20822.876      47.308405      48.228837      133.21293    
     29000  -20938.256      118.3322      -20819.924      47.300585      48.223253      133.27113    
     29100  -20930.423      113.31909     -20817.104      47.293969      48.218108      133.32933    
     29200  -20927.177      115.56866     -20811.609      47.285555      48.212105      133.38752    
     29300  -20918.358      115.40476     -20802.953      47.278518      48.206724      133.44572    
     29400  -20913.891      119.64627     -20794.245      47.271065      48.201358      133.50392    
     29500  -20905.609      116.19816     -20789.411      47.263116      48.196424      133.56212    
     29600  -20902.329      117.18826     -20785.141      47.256115      48.192827      133.62031    
     29700  -20898.764      118.75193     -20780.012      47.247578      48.189013      133.67851    
     29800  -20892.477      117.20122     -20775.276      47.239463      48.185825      133.73671    
     29900  -20886.638      114.00608     -20772.632      47.231147      48.182868      133.7949     
     30000  -20881.734      113.72312     -20768.011      47.22194       48.178895      133.8531     
     30100  -20872.437      114.4474      -20757.989      47.213912      48.175456      133.9113     
     30200  -20870.489      120.754       -20749.735      47.205472      48.170784      133.96949    
     30300  -20862.952      117.80956     -20745.142      47.198501      48.166364      134.02769    
     30400  -20858.212      116.13293     -20742.079      47.190371      48.160645      134.08589    
     30500  -20851.058      114.21411     -20736.844      47.182484      48.154675      134.14409    
     30600  -20844.436      117.70234     -20726.733      47.175951      48.150075      134.20228    
     30700  -20837.872      119.53009     -20718.342      47.166063      48.144044      134.26048    
     30800  -20832.363      118.13783     -20714.225      47.157755      48.140202      134.31868    
     30900  -20826.633      116.0621      -20710.571      47.149565      48.137653      134.37687    
     31000  -20823.195      117.0264      -20706.169      47.138545      48.134468      134.43507    
     31100  -20816.148      116.60244     -20699.546      47.130373      48.133813      134.49327    
     31200  -20810.204      120.57792     -20689.627      47.119431      48.131102      134.55146    
     31300  -20799.014      116.42211     -20682.592      47.109312      48.12847       134.60966    
     31400  -20796.964      117.55895     -20679.405      47.100294      48.126048      134.66786    
     31500  -20793.232      116.53852     -20676.694      47.089281      48.120979      134.72606    
     31600  -20787.128      116.47393     -20670.654      47.082601      48.117905      134.78425    
     31700  -20777.742      115.11228     -20662.629      47.073559      48.112414      134.84245    
     31800  -20771.519      117.09387     -20654.425      47.065373      48.108053      134.90065    
     31900  -20764.415      116.62152     -20647.794      47.057263      48.104846      134.95884    
     32000  -20757.857      115.80651     -20642.05       47.046017      48.100392      135.01704    
     32100  -20752.502      115.48936     -20637.013      47.037163      48.098818      135.07524    
     32200  -20751.055      118.27428     -20632.78       47.026206      48.095501      135.13343    
     32300  -20746.476      117.16935     -20629.307      47.015854      48.092183      135.19163    
     32400  -20739.682      112.63703     -20627.045      47.007631      48.089193      135.24983    
     32500  -20732.715      114.66001     -20618.055      46.997703      48.084064      135.30802    
     32600  -20724.148      115.06943     -20609.079      46.989885      48.080937      135.36622    
     32700  -20716.174      115.15681     -20601.017      46.979665      48.077022      135.42442    
     32800  -20713.977      121.26189     -20592.715      46.969166      48.074026      135.48262    
     32900  -20705.197      118.77139     -20586.426      46.959364      48.071563      135.54081    
     33000  -20699.349      116.53924     -20582.81       46.947908      48.066979      135.59901    
     33100  -20696.82       116.70319     -20580.117      46.938841      48.064141      135.65721    
     33200  -20686.746      113.86273     -20572.883      46.92928       48.059941      135.7154     
     33300  -20681.361      117.81316     -20563.548      46.920029      48.055058      135.7736     
     33400  -20674.749      117.99583     -20556.753      46.911812      48.051809      135.8318     
     33500  -20667.115      116.35639     -20550.759      46.9014        48.047416      135.88999    
     33600  -20662.665      116.34308     -20546.322      46.891832      48.044669      135.94819    
     33700  -20658.838      115.50643     -20543.332      46.881167      48.041697      136.00639    
     33800  -20651.239      114.75075     -20536.488      46.869774      48.03902       136.06459    
     33900  -20642.447      117.17186     -20525.275      46.859591      48.036982      136.12278    
     34000  -20637.656      119.41867     -20518.238      46.848703      48.032953      136.18098    
     34100  -20629.983      116.91967     -20513.064      46.838859      48.029501      136.23918    
     34200  -20624.14       115.35579     -20508.785      46.829388      48.025175      136.29737    
     34300  -20618.679      114.26092     -20504.418      46.820077      48.019942      136.35557    
     34400  -20615.391      116.01335     -20499.378      46.81142       48.015014      136.41377    
     34500  -20608.897      118.03821     -20490.859      46.801773      48.009661      136.47197    
     34600  -20599.629      118.38172     -20481.248      46.792504      48.005         136.53016    
     34700  -20592.038      117.32736     -20474.71       46.783454      48.000177      136.58836    
     34800  -20585.613      115.41107     -20470.202      46.774101      47.994194      136.64656    
     34900  -20581.498      112.91853     -20468.58       46.76544       47.989247      136.70475    
     35000  -20577.259      115.24247     -20462.017      46.755957      47.983404      136.76295    
     35100  -20570.646      117.05809     -20453.588      46.747042      47.978932      136.82115    
     35200  -20559.33       114.23231     -20445.098      46.737593      47.974798      136.87934    
     35300  -20553.89       117.04704     -20436.843      46.726957      47.969694      136.93754    
     35400  -20548.878      119.45317     -20429.425      46.717678      47.966257      136.99574    
     35500  -20541.103      118.52467     -20422.579      46.707193      47.96146       137.05394    
     35600  -20536.162      118.7348      -20417.427      46.696625      47.956615      137.11213    
     35700  -20530.894      116.5441      -20414.35       46.687037      47.952669      137.17033    
     35800  -20525.519      116.15239     -20409.367      46.675777      47.946392      137.22853    
     35900  -20520.172      118.3654      -20401.807      46.666179      47.942378      137.28672    
     36000  -20508.852      117.80102     -20391.051      46.654987      47.936771      137.34492    
     36100  -20503.08       118.49243     -20384.588      46.644385      47.931925      137.40312    
     36200  -20496.744      115.93816     -20380.806      46.634761      47.928476      137.46131    
     36300  -20491.529      115.6868      -20375.842      46.623378      47.921884      137.51951    
     36400  -20486.233      117.05435     -20369.179      46.614007      47.917516      137.57771    
     36500  -20477.188      116.37892     -20360.809      46.604528      47.911393      137.63591    
     36600  -20470.55       116.9456      -20353.604      46.595528      47.90405       137.6941     
     36700  -20464.081      116.66389     -20347.417      46.587689      47.898204      137.7523     
     36800  -20460.003      118.05001     -20341.953      46.578949      47.890818      137.8105     
     36900  -20453.532      115.57366     -20337.958      46.570833      47.884637      137.86869    
     37000  -20445.28       111.63978     -20333.64       46.562356      47.878073      137.92689    
     37100  -20441.096      116.87425     -20324.222      46.553171      47.870852      137.98509    
     37200  -20432.005      117.74502     -20314.26       46.544489      47.865635      138.04328    
     37300  -20426          117.58892     -20308.411      46.533728      47.858721      138.10148    
     37400  -20421.838      117.27285     -20304.565      46.522899      47.853322      138.15968    
     37500  -20414.6        114.46029     -20300.14       46.512353      47.849158      138.21787    
     37600  -20407.765      115.66859     -20292.096      46.500663      47.842156      138.27607    
     37700  -20398.685      117.77027     -20280.915      46.491581      47.837005      138.33427    
     37800  -20392.534      117.6487      -20274.885      46.482096      47.829534      138.39247    
     37900  -20389.811      118.12578     -20271.685      46.472682      47.821444      138.45066    
     38000  -20384.036      117.09236     -20266.944      46.465021      47.815175      138.50886    
     38100  -20375.963      116.25218     -20259.711      46.455476      47.806205      138.56706    
     38200  -20366.882      115.81918     -20251.063      46.446993      47.799468      138.62525    
     38300  -20359.245      117.10305     -20242.142      46.438017      47.792475      138.68345    
     38400  -20354.036      117.92422     -20236.112      46.427468      47.784238      138.74165    
     38500  -20349.883      118.11064     -20231.772      46.418132      47.779074      138.79985    
     38600  -20344.422      116.66592     -20227.756      46.407407      47.771821      138.85804    
     38700  -20336.617      115.09505     -20221.522      46.39714       47.764742      138.91624    
     38800  -20329.985      118.17554     -20211.81       46.387898      47.758006      138.97444    
     38900  -20318.11       115.10152     -20203.008      46.378136      47.748222      139.03263    
     39000  -20314.032      116.80439     -20197.228      46.370718      47.740509      139.09083    
     39100  -20310.968      119.07082     -20191.897      46.363154      47.731746      139.14903    
     39200  -20304.901      119.01863     -20185.882      46.35455       47.721678      139.20722    
     39300  -20298.324      118.62103     -20179.703      46.34728       47.714191      139.26542    
     39400  -20289.804      116.69556     -20173.109      46.33836       47.705207      139.32362    
     39500  -20283.017      118.33489     -20164.682      46.329535      47.696463      139.38182    
     39600  -20273.361      117.57511     -20155.786      46.321053      47.688661      139.44001    
     39700  -20270.485      120.30682     -20150.179      46.311161      47.679366      139.49821    
     39800  -20263.813      115.9117      -20147.902      46.301954      47.671615      139.55641    
     39900  -20257.775      115.68222     -20142.093      46.291723      47.663221      139.6146     
     40000  -20250.062      115.76486     -20134.298      46.281185      47.654634      139.6728     
     40100  -20241.331      116.46517     -20124.866      46.271853      47.647203      139.731      
     40200  -20233.612      118.82352     -20114.788      46.261603      47.638222      139.78919    
     40300  -20230.83       121.41218     -20109.418      46.252604      47.630585      139.84739    
     40400  -20225.058      116.61007     -20108.448      46.243523      47.62189       139.90559    
     40500  -20215.946      114.50293     -20101.443      46.234529      47.612295      139.96379    
     40600  -20211.01       118.66793     -20092.342      46.22731       47.603257      140.02198    
     40700  -20203.477      119.90556     -20083.571      46.2184        47.591308      140.08018    
     40800  -20196.229      118.77325     -20077.456      46.211056      47.581789      140.13838    
     40900  -20189.283      114.45591     -20074.827      46.202025      47.571883      140.19657    
     41000  -20187.668      117.60298     -20070.065      46.1917        47.562133      140.25477    
     41100  -20177.726      115.49026     -20062.236      46.182525      47.554965      140.31297    
     41200  -20171.206      117.48424     -20053.722      46.171632      47.544811      140.37116    
     41300  -20164.549      118.30247     -20046.247      46.162723      47.535792      140.42936    
     41400  -20156.457      116.89446     -20039.563      46.154804      47.527154      140.48756    
     41500  -20151.012      117.99347     -20033.019      46.145703      47.516114      140.54575    
     41600  -20141.597      116.14498     -20025.452      46.138838      47.506581      140.60395    
     41700  -20135.404      118.64831     -20016.756      46.130376      47.495171      140.66215    
     41800  -20128.223      117.16636     -20011.057      46.121948      47.484352      140.72035    
     41900  -20121.398      113.93942     -20007.458      46.113599      47.474999      140.77854    
     42000  -20118.499      116.48706     -20002.012      46.103361      47.464215      140.83674    
     42100  -20110.591      117.63617     -19992.955      46.094559      47.454774      140.89494    
     42200  -20101.747      119.70189     -19982.045      46.084887      47.444544      140.95313    
     42300  -20094.208      117.69138     -19976.517      46.075505      47.434687      141.01133    
     42400  -20089.124      116.69918     -19972.425      46.0669        47.425885      141.06953    
     42500  -20082.694      115.79559     -19966.898      46.057429      47.415509      141.12772    
     42600  -20074.017      114.61939     -19959.397      46.048491      47.404781      141.18592    
     42700  -20067.883      116.83777     -19951.045      46.040132      47.394734      141.24412    
     42800  -20060.687      118.25426     -19942.433      46.030627      47.383914      141.30232    
     42900  -20049.858      118.22685     -19931.632      46.021521      47.374042      141.36051    
     43000  -20046.162      119.26998     -19926.892      46.012251      47.364608      141.41871    
     43100  -20040.73       116.79956     -19923.93       46.001707      47.354528      141.47691    
     43200  -20036.407      117.67093     -19918.736      45.99229       47.345048      141.5351     
     43300  -20028.331      115.51863     -19912.812      45.982141      47.334692      141.5933     
     43400  -20022.62       115.46501     -19907.155      45.972546      47.324407      141.6515     
     43500  -20018.838      116.81945     -19902.019      45.963153      47.314054      141.7097     
     43600  -20010.343      116.6979      -19893.645      45.953888      47.303118      141.76789    
     43700  -20003.539      120.55947     -19882.979      45.945411      47.292528      141.82609    
     43800  -19995.518      119.62412     -19875.894      45.936842      47.281981      141.88429    
     43900  -19987.384      116.8609      -19870.523      45.92779       47.271882      141.94248    
     44000  -19981.275      114.45106     -19866.824      45.918529      47.262612      142.00068    
     44100  -19976.553      113.76315     -19862.79       45.908697      47.253467      142.05888    
     44200  -19968.766      116.43406     -19852.332      45.89871       47.243316      142.11707    
     44300  -19958.824      116.45852     -19842.366      45.889537      47.23239       142.17527    
     44400  -19953.394      117.83743     -19835.557      45.880561      47.220534      142.23347    
     44500  -19946.343      115.35786     -19830.985      45.87142       47.208945      142.29167    
     44600  -19942.481      116.36632     -19826.115      45.861677      47.198623      142.34986    
     44700  -19933.484      115.62122     -19817.863      45.850757      47.190098      142.40806    
     44800  -19924.931      118.51787     -19806.413      45.838368      47.182275      142.46626    
     44900  -19917.648      117.6022      -19800.046      45.825729      47.175097      142.52445    
     45000  -19912.474      117.00655     -19795.468      45.813107      47.168584      142.58265    
     45100  -19906.96       116.54596     -19790.414      45.799829      47.161177      142.64085    
     45200  -19896.862      114.27553     -19782.586      45.787949      47.153609      142.69904    
     45300  -19893.066      120.75097     -19772.315      45.77703       47.145308      142.75724    
     45400  -19879.287      119.77567     -19759.512      45.766876      47.13603       142.81544    
     45500  -19875.523      121.59633     -19753.926      45.75753       47.12597       142.87364    
     45600  -19869.573      117.94727     -19751.625      45.748167      47.114854      142.93183    
     45700  -19863.927      115.54559     -19748.382      45.739379      47.103671      142.99003    
     45800  -19860.16       116.99599     -19743.164      45.730392      47.092296      143.04823    
     45900  -19854.069      117.41771     -19736.652      45.721498      47.081195      143.10642    
     46000  -19845.67       118.48262     -19727.187      45.711831      47.070522      143.16462    
     46100  -19835.604      118.30145     -19717.302      45.701992      47.061376      143.22282    
     46200  -19829.878      118.92112     -19710.956      45.691112      47.053199      143.28101    
     46300  -19823.267      115.1868      -19708.081      45.678475      47.045048      143.33921    
     46400  -19818.062      115.89289     -19702.17       45.666571      47.037759      143.39741    
     46500  -19811.287      117.32364     -19693.964      45.6543        47.030447      143.4556     
     46600  -19802.59       117.79443     -19684.796      45.641338      47.023072      143.5138     
     46700  -19794.883      118.59225     -19676.29       45.629358      47.016607      143.572      
     46800  -19788.027      117.14533     -19670.881      45.616163      47.009459      143.6302     
     46900  -19784.842      116.44532     -19668.397      45.60381       47.002511      143.68839    
     47000  -19779.049      117.90978     -19661.14       45.592083      46.995307      143.74659    
     47100  -19767.589      116.05112     -19651.538      45.579639      46.986578      143.80479    
     47200  -19761.704      118.83205     -19642.872      45.56888       46.978508      143.86298    
     47300  -19753.137      117.07849     -19636.059      45.5576        46.97003       143.92118    
     47400  -19747.952      118.44911     -19629.503      45.546265      46.961625      143.97938    
     47500  -19739.067      116.14756     -19622.919      45.535709      46.953608      144.03758    
     47600  -19733.215      117.04838     -19616.166      45.52457       46.944981      144.09577    
     47700  -19726.27       116.18297     -19610.087      45.514018      46.936417      144.15397    
     47800  -19722.466      116.95872     -19605.507      45.503085      46.927274      144.21217    
     47900  -19713.362      114.92786     -19598.434      45.492333      46.918263      144.27036    
     48000  -19704.206      116.36601     -19587.84       45.482036      46.909821      144.32856    
     48100  -19697.718      118.95402     -19578.764      45.470627      46.901515      144.38676    
     48200  -19691.2        118.37109     -19572.829      45.459422      46.893936      144.44495    
     48300  -19684.086      116.43784     -19567.648      45.448269      46.886617      144.50315    
     48400  -19676.234      114.93568     -19561.298      45.437057      46.879263      144.56135    
     48500  -19672.133      117.82132     -19554.311      45.426091      46.872475      144.61955    
     48600  -19663.656      116.67453     -19546.981      45.413816      46.864872      144.67774    
     48700  -19655.46       117.92292     -19537.537      45.402432      46.857951      144.73594    
     48800  -19646.332      119.54912     -19526.783      45.391017      46.850815      144.79414    
     48900  -19642.228      119.9478      -19522.28       45.379082      46.843038      144.85233    
     49000  -19635.364      116.56487     -19518.799      45.368941      46.836222      144.91053    
     49100  -19630.433      117.55303     -19512.88       45.357872      46.828892      144.96873    
     49200  -19622.332      116.3443      -19505.988      45.346248      46.821132      145.02692    
     49300  -19613.329      116.85608     -19496.473      45.336195      46.813866      145.08512    
     49400  -19605.82       119.10147     -19486.718      45.325072      46.805249      145.14332    
     49500  -19600.693      120.18673     -19480.507      45.314424      46.797359      145.20152    
     49600  -19593.621      115.11653     -19478.505      45.304158      46.790083      145.25971    
     49700  -19586.47       115.07378     -19471.396      45.292828      46.78146       145.31791    
     49800  -19577.849      115.77683     -19462.072      45.283756      46.774219      145.37611    
     49900  -19571.045      118.47126     -19452.573      45.273655      46.765469      145.4343     
     50000  -19564.358      118.43267     -19445.925      45.263374      46.756963      145.4925     
     50100  -19560.774      116.7244      -19444.05       45.253892      46.749737      145.5507     
     50200  -19551.617      114.2554      -19437.362      45.24255       46.741683      145.60889    
     50300  -19545.364      116.9785      -19428.385      45.232299      46.734958      145.66709    
     50400  -19537.192      118.92535     -19418.267      45.221758      46.727895      145.72529    
     50500  -19530.694      120.04775     -19410.646      45.212086      46.72072       145.78348    
     50600  -19526.571      117.54883     -19409.022      45.20286       46.714102      145.84168    
     50700  -19517.136      114.47444     -19402.662      45.192644      46.707136      145.89988    
     50800  -19509.895      117.10331     -19392.792      45.182957      46.701198      145.95808    
     50900  -19501.175      118.36933     -19382.806      45.172273      46.694648      146.01627    
     51000  -19495.687      120.4217      -19375.265      45.160954      46.687664      146.07447    
     51100  -19487.904      116.26609     -19371.638      45.150563      46.681302      146.13267    
     51200  -19483.28       116.80441     -19366.475      45.139914      46.674135      146.19086    
     51300  -19472.948      115.04553     -19357.903      45.130421      46.667326      146.24906    
     51400  -19465.908      117.09773     -19348.81       45.120966      46.659973      146.30726    
     51500  -19457.293      116.95026     -19340.343      45.111946      46.652526      146.36545    
     51600  -19450.327      116.4143      -19333.912      45.10285       46.645066      146.42365    
     51700  -19445.916      115.00923     -19330.907      45.093125      46.63763       146.48185    
     51800  -19440.305      115.59362     -19324.711      45.083461      46.631368      146.54005    
     51900  -19431.29       115.65131     -19315.638      45.073162      46.625375      146.59824    
     52000  -19422.757      118.01995     -19304.737      45.062505      46.619344      146.65644    
     52100  -19416.995      119.70448     -19297.291      45.052451      46.613975      146.71464    
     52200  -19414.523      119.05965     -19295.464      45.04237       46.60818       146.77283    
     52300  -19404.036      114.86256     -19289.173      45.032916      46.602429      146.83103    
     52400  -19397.457      117.53805     -19279.919      45.02315       46.595569      146.88923    
     52500  -19388.769      118.0742      -19270.695      45.013783      46.589014      146.94743    
     52600  -19380.856      117.41297     -19263.443      45.004737      46.582754      147.00562    
     52700  -19376.22       116.57357     -19259.646      44.995099      46.576242      147.06382    
     52800  -19370.362      116.11824     -19254.244      44.986285      46.570694      147.12202    
     52900  -19362.333      116.58867     -19245.744      44.977319      46.564795      147.18021    
     53000  -19354.757      118.0887      -19236.668      44.968353      46.558221      147.23841    
     53100  -19345.835      116.85318     -19228.982      44.959879      46.552096      147.29661    
     53200  -19340.31       118.3123      -19221.998      44.950555      46.545686      147.3548     
     53300  -19332.28       115.9922      -19216.287      44.941249      46.539694      147.413      
     53400  -19328.298      116.77868     -19211.519      44.932344      46.534587      147.4712     
     53500  -19321.345      114.57366     -19206.771      44.922327      46.528385      147.5294     
     53600  -19313.45       112.58228     -19200.867      44.913789      46.523215      147.58759    
     53700  -19304.903      115.56182     -19189.341      44.90491       46.517193      147.64579    
     53800  -19299.639      120.46096     -19179.178      44.895846      46.510943      147.70399    
     53900  -19291.66       120.01816     -19171.642      44.888002      46.505378      147.76218    
     54000  -19283.084      115.859       -19167.225      44.879342      46.498632      147.82038    
     54100  -19277.593      116.13185     -19161.461      44.870677      46.491804      147.87858    
     54200  -19270.273      118.16188     -19152.111      44.862489      46.485916      147.93677    
     54300  -19259.947      119.17458     -19140.773      44.85393       46.479316      147.99497    
     54400  -19249.878      122.17534     -19127.702      44.845436      46.472974      148.05317    
     54500  -19243.901      123.89992     -19120.001      44.837853      46.467129      148.11137    
     54600  -19233.954      117.17876     -19116.775      44.830491      46.461342      148.16956    
     54700  -19232.392      118.75883     -19113.633      44.823094      46.454709      148.22776    
     54800  -19222.727      113.18632     -19109.541      44.816469      46.44874       148.28596    
     54900  -19219.668      116.41145     -19103.256      44.809561      46.442537      148.34415    
     55000  -19211.726      116.60248     -19095.124      44.802485      46.436397      148.40235    
     55100  -19202.002      117.18397     -19084.818      44.795167      46.430372      148.46055    
     55200  -19193.705      117.55714     -19076.148      44.787369      46.424358      148.51874    
     55300  -19189.918      117.19606     -19072.721      44.779723      46.418943      148.57694    
     55400  -19184.944      116.63205     -19068.312      44.771717      46.413461      148.63514    
     55500  -19175.643      115.00573     -19060.638      44.763328      46.407627      148.69333    
     55600  -19167.71       117.15141     -19050.559      44.755315      46.402042      148.75153    
     55700  -19158.207      118.2955      -19039.912      44.747313      46.39638       148.80973    
     55800  -19152.688      120.51629     -19032.172      44.73962       46.390816      148.86793    
     55900  -19147.004      116.53944     -19030.465      44.732451      46.385646      148.92612    
     56000  -19139.05       115.1182      -19023.932      44.725176      46.380012      148.98432    
     56100  -19130.993      115.42881     -19015.564      44.71848       46.374607      149.04252    
     56200  -19124.995      117.89357     -19007.102      44.712008      46.368603      149.10071    
     56300  -19118.876      119.7209      -18999.155      44.705741      46.361682      149.15891    
     56400  -19109.224      116.06496     -18993.159      44.699851      46.354809      149.21711    
     56500  -19102.606      113.67955     -18988.926      44.694155      46.347884      149.27531    
     56600  -19098.714      116.58268     -18982.132      44.688308      46.341312      149.3335     
     56700  -19088.808      116.2768      -18972.531      44.682234      46.334882      149.3917     
     56800  -19080.323      120.19666     -18960.126      44.675901      46.328913      149.4499     
     56900  -19071.266      118.91543     -18952.35       44.66863       46.322616      149.50809    
     57000  -19065.935      119.08166     -18946.854      44.661471      46.317312      149.56629    
     57100  -19060.512      118.46269     -18942.049      44.654169      46.312946      149.62449    
     57200  -19050.898      115.38237     -18935.516      44.646015      46.307745      149.68268    
     57300  -19046.167      118.77459     -18927.392      44.638722      46.303972      149.74088    
     57400  -19040.483      120.56771     -18919.916      44.631152      46.299951      149.79908    
     57500  -19030.707      115.67292     -18915.034      44.62335       46.295961      149.85728    
     57600  -19026.661      117.69959     -18908.962      44.616588      46.293074      149.91547    
     57700  -19018.797      118.7449      -18900.052      44.609159      46.287836      149.97367    
     57800  -19008.246      119.7259      -18888.52       44.602687      46.28267       150.03187    
     57900  -18999.614      119.28197     -18880.332      44.596478      46.276569      150.09006    
     58000  -18994.901      117.2508      -18877.65       44.590394      46.26932       150.14826    
     58100  -18985.768      115.38555     -18870.382      44.585533      46.262937      150.20646    
     58200  -18980.156      118.38171     -18861.774      44.580502      46.256065      150.26465    
     58300  -18972.677      119.31924     -18853.358      44.575386      46.24936       150.32285    
     58400  -18964.213      117.01758     -18847.195      44.570231      46.242536      150.38105    
     58500  -18958.189      115.77704     -18842.412      44.565108      46.236051      150.43924    
     58600  -18949.711      115.2287      -18834.482      44.559613      46.229912      150.49744    
     58700  -18942.117      119.01577     -18823.102      44.553613      46.224152      150.55564    
     58800  -18932.173      120.36498     -18811.808      44.547743      46.218921      150.61384    
     58900  -18927.234      121.92929     -18805.305      44.541578      46.213296      150.67203    
     59000  -18919.289      118.8349      -18800.454      44.536033      46.208499      150.73023    
     59100  -18912.275      116.6258      -18795.649      44.530349      46.203068      150.78843    
     59200  -18905.192      116.24745     -18788.944      44.525147      46.197175      150.84662    
     59300  -18897.389      115.7971      -18781.592      44.520071      46.191166      150.90482    
     59400  -18892.551      116.65487     -18775.896      44.514833      46.184842      150.96302    
     59500  -18884.526      113.77167     -18770.754      44.509688      46.178963      151.02121    
     59600  -18875.998      114.89498     -18761.103      44.504056      46.172791      151.07941    
     59700  -18869.02       120.37841     -18748.641      44.498155      46.167127      151.13761    
     59800  -18860.039      119.10029     -18740.939      44.492054      46.161878      151.19581    
     59900  -18852.676      117.8808      -18734.795      44.485976      46.15633       151.254      
     60000  -18845.922      117.34726     -18728.575      44.480755      46.151165      151.3122     
     60100  -18837.887      114.42223     -18723.464      44.475692      46.145783      151.3704     
     60200  -18834.283      115.59477     -18718.689      44.470695      46.140047      151.42859    
     60300  -18826.294      113.1962      -18713.098      44.465876      46.13397       151.48679    
     60400  -18817.085      115.30156     -18701.784      44.461195      46.127732      151.54499    
     60500  -18808.5        119.14625     -18689.353      44.45629       46.121291      151.60318    
     60600  -18798.821      118.54776     -18680.273      44.451512      46.115034      151.66138    
     60700  -18790.148      116.32896     -18673.819      44.447128      46.109443      151.71958    
     60800  -18785.123      116.27984     -18668.843      44.441998      46.101978      151.77778    
     60900  -18778.224      117.41031     -18660.814      44.437811      46.096109      151.83597    
     61000  -18770.425      118.94379     -18651.481      44.432966      46.089456      151.89417    
     61100  -18759.041      117.54421     -18641.497      44.42776       46.082673      151.95237    
     61200  -18750.649      118.83871     -18631.81       44.423882      46.077549      152.01056    
     61300  -18744.736      118.13592     -18626.6        44.418345      46.070446      152.06876    
     61400  -18739.241      118.15857     -18621.083      44.414944      46.065925      152.12696    
     61500  -18730.561      115.53765     -18615.023      44.41041       46.059742      152.18516    
     61600  -18724.598      117.05406     -18607.544      44.405714      46.053382      152.24335    
     61700  -18715.743      117.81574     -18597.927      44.402235      46.049055      152.30155    
     61800  -18706.508      119.9472      -18586.56       44.3964        46.042086      152.35975    
     61900  -18697.911      121.66712     -18576.244      44.391375      46.036995      152.41794    
     62000  -18691.183      118.71019     -18572.472      44.385866      46.030841      152.47614    
     62100  -18682.973      116.64279     -18566.33       44.380766      46.024879      152.53434    
     62200  -18675.064      115.89816     -18559.166      44.376401      46.019318      152.59253    
     62300  -18667.726      116.47342     -18551.253      44.371387      46.012928      152.65073    
     62400  -18660.392      117.14065     -18543.251      44.367273      46.00754       152.70893    
     62500  -18652.053      115.40209     -18536.651      44.362654      46.00151       152.76713    
     62600  -18643.945      113.88485     -18530.06       44.357637      45.994805      152.82532    
     62700  -18635.71       115.35328     -18520.356      44.353795      45.989681      152.88352    
     62800  -18628.22       120.31243     -18507.907      44.348786      45.983013      152.94172    
     62900  -18617.92       120.48097     -18497.439      44.34464       45.977653      152.99991    
     63000  -18611.408      118.61554     -18492.792      44.340292      45.971561      153.05811    
     63100  -18604.337      118.53913     -18485.798      44.33551       45.965039      153.11631    
     63200  -18596.297      118.34566     -18477.951      44.33117       45.959659      153.1745     
     63300  -18588.89       117.18019     -18471.709      44.325831      45.953534      153.2327     
     63400  -18577.797      114.00051     -18463.797      44.320922      45.947903      153.2909     
     63500  -18570.639      117.95799     -18452.681      44.31635       45.942458      153.3491     
     63600  -18562.258      122.19707     -18440.06       44.311533      45.93659       153.40729    
     63700  -18553.224      120.08811     -18433.136      44.306862      45.930955      153.46549    
     63800  -18546.855      118.87106     -18427.984      44.301842      45.924957      153.52369    
     63900  -18536.611      116.38385     -18420.227      44.297138      45.919876      153.58188    
     64000  -18530.641      117.42275     -18413.219      44.291384      45.913992      153.64008    
     64100  -18521.995      116.17299     -18405.822      44.285607      45.909091      153.69828    
     64200  -18514.188      116.51154     -18397.677      44.280052      45.904626      153.75647    
     64300  -18508.694      116.47603     -18392.218      44.274133      45.899209      153.81467    
     64400  -18499.323      115.43609     -18383.887      44.269207      45.894495      153.87287    
     64500  -18489.343      118.4943      -18370.849      44.26388       45.888525      153.93106    
     64600  -18478.857      119.1205      -18359.737      44.258917      45.882629      153.98926    
     64700  -18470.333      119.17917     -18351.154      44.254596      45.877365      154.04746    
     64800  -18460.185      116.93772     -18343.247      44.249425      45.870717      154.10566    
     64900  -18453.027      117.56353     -18335.463      44.245461      45.864953      154.16385    
     65000  -18443.203      115.82032     -18327.383      44.240909      45.85838       154.22205    
     65100  -18435.076      116.68462     -18318.392      44.236691      45.852436      154.28025    
     65200  -18427.432      118.01243     -18309.419      44.231993      45.846408      154.33844    
     65300  -18417.757      117.40748     -18300.35       44.226988      45.840146      154.39664    
     65400  -18409.164      117.39349     -18291.77       44.222293      45.834752      154.45484    
     65500  -18402.843      115.05939     -18287.784      44.217097      45.829068      154.51304    
     65600  -18395.014      115.93815     -18279.076      44.212323      45.824146      154.57123    
     65700  -18384.299      117.99405     -18266.305      44.206573      45.81805       154.62943    
     65800  -18373.821      120.07403     -18253.747      44.201755      45.813394      154.68763    
     65900  -18364.57       119.95592     -18244.614      44.19638       45.808547      154.74582    
     66000  -18355.548      117.09846     -18238.449      44.190702      45.803215      154.80402    
     66100  -18346.499      116.82277     -18229.676      44.185827      45.798493      154.86222    
     66200  -18340.102      119.39687     -18220.705      44.179929      45.792081      154.92041    
     66300  -18328.524      116.57903     -18211.945      44.175112      45.786925      154.97861    
     66400  -18323.194      117.53572     -18205.659      44.169905      45.78095       155.03681    
     66500  -18311.633      115.37353     -18196.26       44.164411      45.774524      155.09501    
     66600  -18302.764      117.83317     -18184.93       44.160004      45.769664      155.1532     
     66700  -18291.193      117.64014     -18173.553      44.15423       45.763053      155.2114     
     66800  -18282.213      118.4129      -18163.8        44.14981       45.757918      155.2696     
     66900  -18274.334      118.18145     -18156.152      44.145078      45.751899      155.32779    
     67000  -18263.685      115.71125     -18147.974      44.140396      45.745309      155.38599    
     67100  -18258.608      121.16861     -18137.44       44.136947      45.739492      155.44419    
     67200  -18242.356      114.89056     -18127.465      44.132004      45.732187      155.50238    
     67300  -18236.2        117.80607     -18118.394      44.127898      45.7267        155.56058    
     67400  -18229.812      118.02837     -18111.784      44.122559      45.720607      155.61878    
     67500  -18215.453      113.71864     -18101.735      44.117202      45.715042      155.67697    
     67600  -18206.931      117.20859     -18089.723      44.112309      45.709897      155.73517    
     67700  -18195.86       118.09815     -18077.762      44.106424      45.703388      155.79337    
     67800  -18184.784      114.68082     -18070.104      44.101857      45.698142      155.85157    
     67900  -18178.788      116.66494     -18062.123      44.096352      45.69177       155.90976    
     68000  -18167.918      117.06695     -18050.851      44.091306      45.686         155.96796    
     68100  -18157.366      118.13455     -18039.231      44.086244      45.680298      156.02616    
     68200  -18148.038      116.46198     -18031.576      44.081028      45.67412       156.08435    
     68300  -18138.074      116.32679     -18021.748      44.076628      45.668653      156.14255    
     68400  -18126.261      115.98134     -18010.28       44.070916      45.662072      156.20075    
     68500  -18118.393      117.37616     -18001.017      44.066087      45.656598      156.25895    
     68600  -18110.145      117.94423     -17992.201      44.060914      45.650847      156.31714    
     68700  -18098.469      117.36713     -17981.102      44.055704      45.644929      156.37534    
     68800  -18088.93       118.40107     -17970.529      44.05072       45.638608      156.43354    
     68900  -18079.572      118.52058     -17961.051      44.046294      45.632208      156.49173    
     69000  -18071.036      119.6007      -17951.435      44.042158      45.625768      156.54993    
     69100  -18058.188      117.78124     -17940.407      44.037253      45.618778      156.60813    
     69200  -18046.855      117.73055     -17929.125      44.032644      45.612998      156.66632    
     69300  -18037.751      118.65417     -17919.096      44.027008      45.606921      156.72452    
     69400  -18026.604      118.3512      -17908.253      44.021383      45.601469      156.78272    
     69500  -18016.731      119.96645     -17896.764      44.015705      45.596072      156.84091    
     69600  -18006.54       119.82628     -17886.714      44.009858      45.590233      156.89911    
     69700  -17993.996      117.41628     -17876.58       44.004834      45.584667      156.95731    
     69800  -17985.771      120.40347     -17865.368      43.999404      45.578381      157.01551    
     69900  -17973.97       118.75448     -17855.215      43.994319      45.572489      157.0737     
     70000  -17963.907      118.72482     -17845.182      43.988914      45.566599      157.1319     
     70100  -17952.133      117.54988     -17834.584      43.983417      45.560557      157.1901     
     70200  -17943.872      120.14918     -17823.723      43.978553      45.554621      157.24829    
     70300  -17930.407      117.91045     -17812.496      43.973238      45.547941      157.30649    
     70400  -17921.148      117.99865     -17803.149      43.968674      45.542181      157.36469    
     70500  -17912.3        119.67678     -17792.624      43.963022      45.535454      157.42289    
     70600  -17902.704      120.84935     -17781.855      43.957945      45.529628      157.48108    
     70700  -17889.93       119.2351      -17770.695      43.952304      45.523327      157.53928    
     70800  -17878.838      120.43671     -17758.401      43.947096      45.517026      157.59748    
     70900  -17866.118      118.74397     -17747.374      43.942314      45.510693      157.65567    
     71000  -17853.721      118.43677     -17735.284      43.937029      45.503565      157.71387    
     71100  -17841.479      117.19873     -17724.281      43.932291      45.497408      157.77207    
     71200  -17830.114      117.41617     -17712.698      43.927003      45.490986      157.83026    
     71300  -17821.324      119.24812     -17702.076      43.921639      45.484816      157.88846    
     71400  -17814.527      123.44015     -17691.086      43.916057      45.478925      157.94666    
     71500  -17801.505      121.76601     -17679.739      43.91054       45.473103      158.00486    
     71600  -17787.37       120.15674     -17667.213      43.905072      45.467378      158.06305    
     71700  -17774.092      118.96348     -17655.129      43.899014      45.460818      158.12125    
     71800  -17767.282      122.89584     -17644.386      43.893702      45.454775      158.17945    
     71900  -17753.828      120.29187     -17633.536      43.888113      45.44825       158.23764    
     72000  -17743.31       119.97589     -17623.334      43.882898      45.441811      158.29584    
     72100  -17732.055      119.93349     -17612.122      43.877724      45.43546       158.35404    
     72200  -17721.129      120.03741     -17601.092      43.872273      45.428657      158.41223    
     72300  -17708.741      119.33266     -17589.409      43.867317      45.422243      158.47043    
     72400  -17696.098      117.61676     -17578.481      43.862046      45.4156        158.52863    
     72500  -17686.08       120.30819     -17565.772      43.856407      45.409077      158.58683    
     72600  -17675.649      123.49168     -17552.157      43.850684      45.403037      158.64502    
     72700  -17661.453      122.34123     -17539.112      43.844501      45.39681       158.70322    
     72800  -17648.045      122.02287     -17526.022      43.838505      45.390936      158.76142    
     72900  -17637.425      123.67482     -17513.75       43.832625      45.384939      158.81961    
     73000  -17624.681      122.38129     -17502.3        43.826568      45.378502      158.87781    
     73100  -17610.27       119.37141     -17490.899      43.820871      45.372423      158.93601    
     73200  -17599.293      119.73259     -17479.561      43.815081      45.366268      158.9942     
[...]
    181600  -21552.29       115.76257     -21436.527      42.381575      37.402641      222.07975    
    181700  -21549.395      118.00294     -21431.392      42.372754      37.393795      222.13795    
    181800  -21549.416      118.89593     -21430.52       42.364886      37.386541      222.19615    
    181900  -21553.263      120.4242      -21432.839      42.355859      37.377165      222.25434    
    182000  -21551.95       116.66445     -21435.286      42.348915      37.368973      222.31254    
    182100  -21554.663      118.82547     -21435.838      42.340343      37.359565      222.37074    
    182200  -21552.068      116.81526     -21435.253      42.332049      37.350803      222.42893    
    182300  -21551.31       120.14543     -21431.164      42.32328       37.340561      222.48713    
    182400  -21548.596      119.71357     -21428.883      42.315554      37.330683      222.54533    
    182500  -21550.783      119.16355     -21431.62       42.308178      37.321119      222.60352    
    182600  -21551.69       117.45646     -21434.234      42.299979      37.310662      222.66172    
    182700  -21553.245      118.25258     -21434.992      42.292874      37.302176      222.71992    
    182800  -21550.357      115.45143     -21434.905      42.284874      37.292641      222.77812    
    182900  -21548.811      115.61105     -21433.2        42.277806      37.284542      222.83631    
    183000  -21550.112      120.46868     -21429.643      42.269607      37.275369      222.89451    
    183100  -21548.395      118.81426     -21429.58       42.262181      37.266417      222.95271    
    183200  -21551.158      117.01269     -21434.146      42.254529      37.257422      223.0109     
    183300  -21553.72       118.49273     -21435.228      42.245313      37.247568      223.0691     
    183400  -21550.28       115.1754      -21435.105      42.237149      37.23918       223.1273     
    183500  -21552.91       118.76447     -21434.145      42.228511      37.229435      223.1855     
    183600  -21552.304      120.03343     -21432.27       42.220207      37.220338      223.24369    
    183700  -21552.668      121.86482     -21430.803      42.211467      37.210582      223.30189    
    183800  -21550.817      118.01094     -21432.806      42.203714      37.202169      223.36009    
    183900  -21554.05       117.2696      -21436.78       42.196337      37.193975      223.41828    
    184000  -21552.494      115.51725     -21436.977      42.188457      37.186158      223.47648    
    184100  -21553.276      118.32046     -21434.955      42.180112      37.178504      223.53468    
    184200  -21552.185      120.24793     -21431.937      42.17127       37.170926      223.59287    
    184300  -21547.537      119.30864     -21428.228      42.163399      37.16326       223.65107    
    184400  -21549.659      124.55448     -21425.105      42.155453      37.154941      223.70927    
    184500  -21547.424      117.33713     -21430.086      42.147509      37.146419      223.76747    
    184600  -21550.677      117.06089     -21433.616      42.140032      37.137411      223.82566    
    184700  -21552.147      116.19462     -21435.953      42.132606      37.127945      223.88386    
    184800  -21550.342      113.82676     -21436.515      42.125203      37.118705      223.94206    
    184900  -21551.551      117.13601     -21434.415      42.118017      37.110199      224.00025    
    185000  -21549.798      118.50056     -21431.298      42.110473      37.10213       224.05845    
    185100  -21549.28       117.5311      -21431.749      42.103218      37.093579      224.11665    
    185200  -21550.819      114.31445     -21436.504      42.095958      37.084274      224.17484    
    185300  -21553.116      115.20506     -21437.911      42.089249      37.075029      224.23304    
    185400  -21554.563      118.79476     -21435.769      42.082236      37.066153      224.29124    
    185500  -21549.304      116.26616     -21433.037      42.075337      37.057368      224.34944    
    185600  -21550.329      118.18863     -21432.141      42.067913      37.048541      224.40763    
    185700  -21551.54       117.30196     -21434.238      42.061008      37.039638      224.46583    
    185800  -21551.633      112.70413     -21438.929      42.05338       37.030707      224.52403    
    185900  -21552.073      113.66189     -21438.411      42.045714      37.021602      224.58222    
    186000  -21549.949      114.76261     -21435.186      42.039566      37.013434      224.64042    
    186100  -21550.261      117.1415      -21433.12       42.032502      37.005423      224.69862    
    186200  -21551.459      118.58454     -21432.874      42.025562      36.997295      224.75681    
    186300  -21549.074      114.85218     -21434.222      42.018537      36.989861      224.81501    
    186400  -21553.789      115.05512     -21438.733      42.01012       36.981762      224.87321    
    186500  -21555.5        115.69199     -21439.808      42.000936      36.974323      224.9314     
    186600  -21552.587      115.31166     -21437.275      41.992118      36.967286      224.9896     
    186700  -21552.421      117.51234     -21434.909      41.983406      36.960296      225.0478     
    186800  -21553.592      119.94183     -21433.65       41.975468      36.953398      225.106      
    186900  -21551.461      118.40934     -21433.052      41.967406      36.945269      225.16419    
    187000  -21551.856      117.07858     -21434.777      41.960018      36.938349      225.22239    
    187100  -21553.258      114.99155     -21438.267      41.95198       36.930474      225.28059    
    187200  -21551.933      113.92982     -21438.003      41.944951      36.923978      225.33878    
    187300  -21550.559      116.25591     -21434.303      41.93709       36.917269      225.39698    
    187400  -21550.141      117.33806     -21432.803      41.928873      36.910193      225.45518    
    187500  -21551.189      117.47925     -21433.709      41.921672      36.90361       225.51337    
    187600  -21552.401      117.80624     -21434.595      41.913911      36.895801      225.57157    
    187700  -21553.855      117.71518     -21436.14       41.906384      36.888263      225.62977    
    187800  -21556.587      117.34127     -21439.246      41.89836       36.88113       225.68797    
    187900  -21553.724      114.4287      -21439.295      41.890147      36.874084      225.74616    
    188000  -21553.426      118.52739     -21434.899      41.882092      36.867012      225.80436    
    188100  -21551.367      118.40323     -21432.963      41.873708      36.860099      225.86256    
    188200  -21551.058      117.88562     -21433.172      41.8659        36.854062      225.92075    
    188300  -21551.459      116.15708     -21435.302      41.857128      36.845945      225.97895    
    188400  -21554.971      116.48698     -21438.484      41.850121      36.839526      226.03715    
    188500  -21553.973      115.26471     -21438.708      41.84289       36.832482      226.09535    
    188600  -21552.357      119.41442     -21432.943      41.835824      36.825812      226.15354    
    188700  -21550.766      118.90012     -21431.866      41.828805      36.81962       226.21174    
    188800  -21551.572      118.06662     -21433.506      41.820098      36.811705      226.26994    
    188900  -21552.625      116.18807     -21436.437      41.812881      36.805383      226.32813    
    189000  -21552.562      115.18015     -21437.382      41.805362      36.798538      226.38633    
    189100  -21551.49       116.42903     -21435.061      41.798308      36.79165       226.44453    
    189200  -21548.75       118.42004     -21430.33       41.790037      36.783149      226.50272    
    189300  -21548.317      116.24975     -21432.068      41.783038      36.775724      226.56092    
    189400  -21551.713      116.34072     -21435.372      41.775478      36.767415      226.61912    
    189500  -21551.603      115.21559     -21436.388      41.769127      36.759811      226.67732    
    189600  -21554.377      118.83578     -21435.541      41.761878      36.75193       226.73551    
    189700  -21551.213      119.16197     -21432.051      41.754789      36.744407      226.79371    
    189800  -21548.965      120.38721     -21428.577      41.747982      36.737363      226.85191    
    189900  -21549.092      118.32539     -21430.766      41.741067      36.729871      226.9101     
    190000  -21551.339      118.43148     -21432.908      41.734013      36.722538      226.9683     
    190100  -21552.664      118.35678     -21434.307      41.727734      36.715661      227.0265     
    190200  -21552.41       116.57069     -21435.84       41.721574      36.708703      227.08469    
    190300  -21552.775      115.79324     -21436.981      41.714658      36.701956      227.14289    
    190400  -21551.374      115.56168     -21435.812      41.7074        36.694426      227.20109    
    190500  -21547.012      114.68296     -21432.329      41.700857      36.687905      227.25929    
    190600  -21549.896      118.56456     -21431.331      41.693786      36.681124      227.31748    
    190700  -21550.122      115.72029     -21434.402      41.686823      36.674817      227.37568    
    190800  -21553.083      115.92818     -21437.155      41.680097      36.668635      227.43388    
    190900  -21551.801      114.98105     -21436.819      41.673531      36.662105      227.49207    
    191000  -21553.053      117.86483     -21435.188      41.667364      36.655944      227.55027    
    191100  -21550.71       117.42392     -21433.286      41.660213      36.647696      227.60847    
    191200  -21551.786      119.12691     -21432.659      41.653967      36.640922      227.66666    
    191300  -21552.783      117.8827      -21434.9        41.648069      36.633448      227.72486    
    191400  -21553.309      115.542       -21437.767      41.641192      36.625575      227.78306    
    191500  -21551.822      115.00826     -21436.814      41.634844      36.618336      227.84125    
    191600  -21551.134      117.72476     -21433.409      41.628908      36.611363      227.89945    
    191700  -21550.448      118.3522      -21432.096      41.622932      36.603753      227.95765    
    191800  -21551.784      118.37632     -21433.408      41.616166      36.595143      228.01585    
    191900  -21554.223      116.53094     -21437.692      41.610299      36.58911       228.07404    
    192000  -21554.073      114.07553     -21439.997      41.60299       36.582551      228.13224    
    192100  -21552.403      114.63241     -21437.771      41.594992      36.575657      228.19044    
    192200  -21550.5        115.82759     -21434.672      41.589646      36.568981      228.24863    
    192300  -21550.668      117.69315     -21432.975      41.583399      36.561931      228.30683    
    192400  -21551.237      118.03159     -21433.205      41.578184      36.55533       228.36503    
    192500  -21553.762      116.4655      -21437.297      41.572057      36.547182      228.42323    
    192600  -21553.73       114.68411     -21439.046      41.566821      36.540608      228.48142    
    192700  -21553.076      116.63278     -21436.443      41.559574      36.533428      228.53962    
    192800  -21552.614      118.34816     -21434.266      41.552598      36.527143      228.59782    
    192900  -21550.998      117.20559     -21433.793      41.545778      36.520891      228.65601    
    193000  -21550.934      116.57156     -21434.362      41.538183      36.51465       228.71421    
    193100  -21554.659      117.09958     -21437.559      41.531693      36.5085        228.77241    
    193200  -21556.216      115.91343     -21440.303      41.524431      36.499916      228.8306     
    193300  -21554.337      116.6244      -21437.713      41.519709      36.493548      228.8888     
    193400  -21551.617      116.84613     -21434.771      41.513076      36.485996      228.947      
    193500  -21550.605      116.40294     -21434.202      41.506491      36.479447      229.0052     
    193600  -21551.576      117.01831     -21434.558      41.500367      36.473093      229.06339    
    193700  -21552.112      115.28653     -21436.826      41.494121      36.466203      229.12159    
    193800  -21553.883      114.49727     -21439.386      41.488679      36.45976       229.17979    
    193900  -21554.234      116.9708      -21437.263      41.48251       36.452827      229.23798    
    194000  -21550.059      117.03485     -21433.024      41.476844      36.446361      229.29618    
    194100  -21549.153      116.32044     -21432.833      41.470504      36.439385      229.35438    
    194200  -21550.574      116.16052     -21434.414      41.46429       36.434806      229.41257    
    194300  -21552.721      115.48912     -21437.232      41.456554      36.429264      229.47077    
    194400  -21554.51       115.62311     -21438.887      41.449433      36.423144      229.52897    
    194500  -21554.624      117.75509     -21436.869      41.443183      36.416906      229.58717    
    194600  -21553.045      120.38494     -21432.66       41.436051      36.410359      229.64536    
    194700  -21549.401      117.25586     -21432.146      41.430928      36.405453      229.70356    
    194800  -21551.786      117.78218     -21434.004      41.423632      36.39666       229.76176    
    194900  -21552.662      114.90812     -21437.754      41.418417      36.390046      229.81995    
    195000  -21553.913      115.82756     -21438.085      41.411858      36.382355      229.87815    
    195100  -21550.944      114.87391     -21436.07       41.406169      36.374932      229.93635    
    195200  -21551.778      117.00372     -21434.774      41.400922      36.367427      229.99454    
    195300  -21551.477      117.28459     -21434.193      41.394239      36.358218      230.05274    
    195400  -21553.012      119.45811     -21433.554      41.389705      36.351976      230.11094    
    195500  -21552.906      120.10112     -21432.805      41.38254       36.34336       230.16914    
    195600  -21551.705      118.45154     -21433.253      41.377341      36.337437      230.22733    
    195700  -21553.373      118.07977     -21435.293      41.371263      36.329956      230.28553    
    195800  -21553.849      116.21363     -21437.635      41.364662      36.322827      230.34373    
    195900  -21553.8        116.03073     -21437.769      41.358448      36.31676       230.40192    
    196000  -21549.747      116.67481     -21433.072      41.351178      36.309302      230.46012    
    196100  -21552.011      120.35565     -21431.655      41.346042      36.303549      230.51832    
    196200  -21551.351      117.78951     -21433.562      41.338393      36.295987      230.57651    
    196300  -21554.307      118.50322     -21435.804      41.3318        36.29106       230.63471    
    196400  -21552.826      116.66602     -21436.16       41.324377      36.284605      230.69291    
    196500  -21550.404      116.37141     -21434.032      41.317981      36.277587      230.7511     
    196600  -21549.442      121.12996     -21428.312      41.312732      36.271217      230.8093     
    196700  -21548.553      118.35493     -21430.198      41.306704      36.264121      230.8675     
    196800  -21551.139      117.19044     -21433.949      41.302189      36.258729      230.9257     
    196900  -21552.509      116.56688     -21435.943      41.295203      36.250837      230.98389    
    197000  -21551.777      115.71012     -21436.067      41.289598      36.245123      231.04209    
    197100  -21551.28       117.44313     -21433.836      41.283052      36.237254      231.10029    
    197200  -21548.269      118.34767     -21429.921      41.27722       36.229673      231.15848    
    197300  -21549.714      119.73108     -21429.983      41.271543      36.223213      231.21668    
    197400  -21553.366      119.76181     -21433.605      41.264509      36.215373      231.27488    
    197500  -21552.179      117.5329      -21434.646      41.259187      36.209083      231.33308    
    197600  -21554.22       119.39375     -21434.826      41.25271       36.20172       231.39127    
    197700  -21551.467      116.78337     -21434.684      41.24707       36.195839      231.44947    
    197800  -21549.521      115.7873      -21433.734      41.239983      36.187906      231.50767    
    197900  -21550.052      117.55375     -21432.498      41.234236      36.180816      231.56586    
    198000  -21549.986      117.50041     -21432.486      41.228408      36.174393      231.62406    
    198100  -21550.86       115.7922      -21435.068      41.222147      36.167315      231.68226    
    198200  -21553.961      116.2035      -21437.757      41.216658      36.160704      231.74045    
    198300  -21552.387      115.44728     -21436.94       41.210101      36.154006      231.79865    
    198400  -21550.448      118.19616     -21432.252      41.202647      36.148036      231.85685    
    198500  -21549.477      117.89073     -21431.586      41.196045      36.141698      231.91505    
    198600  -21550.541      117.33623     -21433.204      41.189234      36.13485       231.97324    
    198700  -21551.444      116.4663      -21434.978      41.182787      36.129094      232.03144    
    198800  -21553.307      116.38154     -21436.925      41.176073      36.123972      232.08964    
    198900  -21554.333      115.14111     -21439.192      41.16907       36.118229      232.14783    
    199000  -21552.361      112.66002     -21439.701      41.161597      36.111803      232.20603    
    199100  -21551.508      116.18665     -21435.322      41.154979      36.106119      232.26423    
    199200  -21549.52       116.50267     -21433.017      41.148952      36.099602      232.32242    
    199300  -21551.408      118.8342      -21432.574      41.143185      36.092474      232.38062    
    199400  -21551.866      117.00073     -21434.866      41.137784      36.08582       232.43882    
    199500  -21554.874      116.26262     -21438.612      41.132915      36.079218      232.49702    
    199600  -21552.628      114.67771     -21437.95       41.128119      36.072412      232.55521    
    199700  -21555.09       119.13153     -21435.958      41.122747      36.065533      232.61341    
    199800  -21550.819      116.14735     -21434.672      41.116303      36.058543      232.67161    
    199900  -21552.725      119.07984     -21433.645      41.109815      36.052383      232.7298     
    200000  -21552.52       120.04998     -21432.47       41.102774      36.045392      232.788      
Loop time of 3294.08 on 8 procs for 200000 steps with 3024 atoms

Performance: 5.246 ns/day, 4.575 hours/ns, 60.715 timesteps/s
89.8% CPU use with 8 MPI tasks x 1 OpenMP threads

MPI task timing breakdown:
Section |  min time  |  avg time  |  max time  |%varavg| %total
---------------------------------------------------------------
Pair    | 745.52     | 1587.5     | 3077       |2278.9 | 48.19
Neigh   | 5.0101     | 11.002     | 17.407     | 167.4 |  0.33
Comm    | 119.93     | 1535.9     | 2390       |2145.4 | 46.63
Output  | 1.061      | 1.0719     | 1.1469     |   2.7 |  0.03
Modify  | 60.216     | 154.24     | 375.65     | 897.2 |  4.68
Other   |            | 4.353      |            |       |  0.13

Nlocal:            378 ave        1152 max           0 min
Histogram: 4 0 1 1 0 0 0 0 0 2
Nghost:        1373.88 ave        3003 max         324 min
Histogram: 3 1 0 1 0 1 0 0 0 2
Neighs:              0 ave           0 max           0 min
Histogram: 8 0 0 0 0 0 0 0 0 0

Total # of neighbors = 0
Ave neighs/atom = 0
Neighbor list builds = 1131
Dangerous builds = 0
Total wall time: 0:54:54
