LAMMPS (23 Jun 2022 - Update 1)
OMP_NUM_THREADS environment is not set. Defaulting to 1 thread. (../comm.cpp:98)
  using 1 OpenMP thread(s) per MPI task
Reading data file ...
  orthogonal box = (-25 -25 -0.606218) to (25 25 110.93785)
  1 by 2 by 4 MPI processor grid
  reading atoms ...
  2928 atoms
  reading velocities ...
  2928 velocities
  read_data CPU = 0.017 seconds
Reading airebo potential file CH.airebo with DATE: 2011-10-25
Reading airebo potential file CH.airebo with DATE: 2011-10-25
Reading airebo potential file CH.airebo with DATE: 2011-10-25
Neighbor list info ...
  update every 1 steps, delay 0 steps, check yes
  max neighbors/atom: 2000, page size: 100000
  master list distance cutoff = 13.2
  ghost atom cutoff = 13.2
  binsize = 6.6, bins = 8 8 17
  6 neighbor lists, perpetual/occasional/extra = 6 0 0
  (1) pair airebo, perpetual, skip from (5)
      attributes: full, newton on, ghost
      pair build: skip/ghost
      stencil: none
      bin: none
  (2) pair airebo, perpetual, skip from (5)
      attributes: full, newton on, ghost
      pair build: skip/ghost
      stencil: none
      bin: none
  (3) pair airebo, perpetual, skip from (5)
      attributes: full, newton on, ghost
      pair build: skip/ghost
      stencil: none
      bin: none
  (4) pair lj/cut, perpetual, skip from (6)
      attributes: half, newton on
      pair build: skip
      stencil: none
      bin: none
  (5) neighbor class addition, perpetual
      attributes: full, newton on, ghost
      pair build: full/bin/ghost
      stencil: full/ghost/bin/3d
      bin: standard
  (6) neighbor class addition, perpetual
      attributes: half, newton on
      pair build: half/bin/atomonly/newton
      stencil: half/bin/3d
      bin: standard
Setting up sd style minimization ...
  Unit style    : metal
  Current step  : 0
Per MPI rank memory allocation (min/avg/max) = 10.25 | 10.25 | 10.25 Mbytes
   Step          Temp          E_pair         E_mol          TotEng         Press     
         0   0             -20344.756      0             -20344.756      27546.587    
        16   0             -21241.397      0             -21241.397      313.77327    
Loop time of 0.178595 on 8 procs for 16 steps with 2928 atoms

99.4% CPU use with 8 MPI tasks x 1 OpenMP threads

Minimization stats:
  Stopping criterion = energy tolerance
  Energy initial, next-to-last, final = 
     -20344.7559264538  -21240.4212891911  -21241.3968525428
  Force two-norm initial, final = 721.12526 10.912003
  Force max component initial, final = 114.90068 1.6104143
  Final line search alpha, max atom move = 0.031085587 0.050060673
  Iterations, force evaluations = 16 28

MPI task timing breakdown:
Section |  min time  |  avg time  |  max time  |%varavg| %total
---------------------------------------------------------------
Pair    | 0.16987    | 0.17322    | 0.17567    |   0.5 | 96.99
Neigh   | 0          | 0          | 0          |   0.0 |  0.00
Comm    | 0.0016125  | 0.0038056  | 0.0067743  |   2.8 |  2.13
Output  | 0          | 0          | 0          |   0.0 |  0.00
Modify  | 0          | 0          | 0          |   0.0 |  0.00
Other   |            | 0.001573   |            |       |  0.88

Nlocal:            366 ave         378 max         354 min
Histogram: 4 0 0 0 0 0 0 0 0 4
Nghost:           1062 ave        1074 max        1050 min
Histogram: 4 0 0 0 0 0 0 0 0 4
Neighs:              0 ave           0 max           0 min
Histogram: 8 0 0 0 0 0 0 0 0 0

Total # of neighbors = 0
Ave neighs/atom = 0
Neighbor list builds = 0
Dangerous builds = 0
Setting up Verlet run ...
  Unit style    : metal
  Current step  : 16
  Time step     : 0.001
Per MPI rank memory allocation (min/avg/max) = 10.88 | 10.88 | 10.88 Mbytes
   Step          Temp          E_pair         E_mol          TotEng         Press          Volume    
        16   300           -21241.397      0             -21127.894      748.5249       278860.18    
Loop time of 3.02475e-06 on 8 procs for 0 steps with 2928 atoms

132.2% CPU use with 8 MPI tasks x 1 OpenMP threads

MPI task timing breakdown:
Section |  min time  |  avg time  |  max time  |%varavg| %total
---------------------------------------------------------------
Pair    | 0          | 0          | 0          |   0.0 |  0.00
Neigh   | 0          | 0          | 0          |   0.0 |  0.00
Comm    | 0          | 0          | 0          |   0.0 |  0.00
Output  | 0          | 0          | 0          |   0.0 |  0.00
Modify  | 0          | 0          | 0          |   0.0 |  0.00
Other   |            | 3.025e-06  |            |       |100.00

Nlocal:            366 ave         369 max         363 min
Histogram: 4 0 0 0 0 0 0 0 0 4
Nghost:           1062 ave        1065 max        1059 min
Histogram: 4 0 0 0 0 0 0 0 0 4
Neighs:              0 ave           0 max           0 min
Histogram: 8 0 0 0 0 0 0 0 0 0

Total # of neighbors = 0
Ave neighs/atom = 0
Neighbor list builds = 0
Dangerous builds = 0
Setting up Verlet run ...
  Unit style    : metal
  Current step  : 0
  Time step     : 0.001
Per MPI rank memory allocation (min/avg/max) = 13.65 | 13.65 | 13.65 Mbytes
   Step         PotEng         KinEng         TotEng           Lx             Ly             Lz      
         0  -21241.397      113.50333     -21127.894      50             50             111.54407    
       100  -21222.67       104.85914     -21117.811      50.006007      49.987741      111.59984    
       200  -21227.92       112.91084     -21115.009      50.006153      49.96284       111.65562    
       300  -21217.384      104.33828     -21113.046      50.029098      49.951372      111.71139    
       400  -21222.305      117.45034     -21104.855      50.036274      49.927262      111.76716    
       500  -21219.15       119.84364     -21099.306      50.0601        49.915511      111.82293    
       600  -21218.885      121.01309     -21097.872      50.068372      49.905071      111.8787     
       700  -21213.647      118.53834     -21095.109      50.072359      49.913206      111.93448    
       800  -21198.558      109.79062     -21088.768      50.072162      49.933703      111.99025    
       900  -21192.594      111.43857     -21081.155      50.047146      49.945882      112.04602    
      1000  -21208.24       129.13345     -21079.106      50.031707      49.963432      112.10179    
      1100  -21213.022      120.77842     -21092.243      50.007352      49.97396       112.15756    
      1200  -21203.265      106.14261     -21097.122      49.996075      49.98942       112.21334    
      1300  -21195.247      104.87503     -21090.372      49.979085      49.997612      112.26911    
      1400  -21194.878      113.80425     -21081.074      49.968134      50.011313      112.32488    
      1500  -21194.579      118.27854     -21076.301      49.961137      50.028642      112.38065    
      1600  -21193.09       111.95147     -21081.139      49.948418      50.034417      112.43642    
      1700  -21189.553      108.00411     -21081.549      49.946111      50.043767      112.4922     
      1800  -21186.083      111.90684     -21074.177      49.944073      50.0435        112.54797    
      1900  -21190.507      119.2336      -21071.273      49.947342      50.038182      112.60374    
      2000  -21188.573      111.84211     -21076.731      49.951344      50.029712      112.65951    
      2100  -21191.539      112.27313     -21079.266      49.958522      50.024545      112.71528    
      2200  -21190.85       112.76204     -21078.088      49.96608       50.02058       112.77106    
      2300  -21189.461      114.02016     -21075.441      49.967605      50.012925      112.82683    
      2400  -21188.236      114.12147     -21074.115      49.973403      50.011565      112.8826     
      2500  -21188.081      116.4473      -21071.634      49.975909      50.006662      112.93837    
      2600  -21189.631      117.00826     -21072.623      49.979416      50.003583      112.99414    
      2700  -21189.529      113.16165     -21076.367      49.982839      49.999973      113.04992    
      2800  -21189.091      112.81969     -21076.271      49.985465      49.995177      113.10569    
      2900  -21187.091      114.82854     -21072.262      49.988873      49.990412      113.16146    
      3000  -21181.044      113.1097      -21067.934      49.988807      49.984474      113.21723    
      3100  -21177.721      112.86508     -21064.856      49.993517      49.983528      113.27301    
      3200  -21178.643      116.6601      -21061.983      49.994807      49.982002      113.32878    
      3300  -21178.482      114.99578     -21063.486      49.994594      49.980773      113.38455    
      3400  -21179.027      113.58158     -21065.445      49.995743      49.983125      113.44032    
      3500  -21176.148      111.33687     -21064.811      49.991297      49.981362      113.49609    
      3600  -21179.102      116.23271     -21062.87       49.990978      49.981596      113.55187    
      3700  -21175.734      113.50505     -21062.229      49.9885        49.97935       113.60764    
      3800  -21178.83       114.79031     -21064.039      49.988626      49.977645      113.66341    
      3900  -21175.519      110.08236     -21065.436      49.991344      49.976732      113.71918    
      4000  -21173.894      112.67166     -21061.222      49.990916      49.97187       113.77495    
      4100  -21170.02       112.5546      -21057.465      49.996474      49.971462      113.83073    
      4200  -21171.554      115.98868     -21055.565      49.996191      49.965715      113.8865     
      4300  -21168.727      113.93384     -21054.793      49.998914      49.961786      113.94227    
      4400  -21171.592      116.59686     -21054.995      50.002492      49.957988      113.99804    
      4500  -21170.698      112.79957     -21057.899      50.005449      49.952599      114.05381    
      4600  -21168.324      111.621       -21056.703      50.009713      49.9481        114.10959    
      4700  -21163.933      110.8091      -21053.124      50.010834      49.942766      114.16536    
      4800  -21163.297      113.51631     -21049.781      50.011699      49.939484      114.22113    
      4900  -21164.106      116.35746     -21047.749      50.011932      49.93783       114.2769     
      5000  -21165.008      116.0694      -21048.938      50.010699      49.93681       114.33267    
      5100  -21161.958      112.18557     -21049.773      50.011414      49.937005      114.38845    
      5200  -21161.551      114.62846     -21046.923      50.009428      49.935134      114.44422    
      5300  -21158.558      115.0751      -21043.483      50.0087        49.934782      114.49999    
      5400  -21154.862      114.93757     -21039.925      50.006028      49.933903      114.55576    
      5500  -21153.035      115.2499      -21037.785      50.002405      49.933368      114.61153    
      5600  -21151.24       112.76494     -21038.476      49.99944       49.934275      114.66731    
      5700  -21151.128      112.39195     -21038.736      49.996133      49.935637      114.72308    
      5800  -21149.038      113.29721     -21035.74       49.991939      49.936409      114.77885    
      5900  -21147.696      116.60472     -21031.091      49.98823       49.937693      114.83462    
      6000  -21145.367      113.55148     -21031.815      49.985064      49.939341      114.89039    
      6100  -21144.309      112.18612     -21032.123      49.980603      49.939413      114.94617    
      6200  -21140.659      111.07685     -21029.583      49.979238      49.940166      115.00194    
      6300  -21139.509      112.97778     -21026.531      49.978063      49.938936      115.05771    
      6400  -21136.954      113.08094     -21023.873      49.977673      49.936886      115.11348    
      6500  -21136.532      114.48609     -21022.046      49.978034      49.933497      115.16925    
      6600  -21135.672      112.75068     -21022.921      49.978723      49.930276      115.22503    
      6700  -21135.212      111.69022     -21023.522      49.978414      49.927923      115.2808     
      6800  -21131.097      109.30802     -21021.789      49.977003      49.926086      115.33657    
      6900  -21130.135      114.33572     -21015.799      49.97436       49.924513      115.39234    
      7000  -21127.102      114.1512      -21012.95       49.97359       49.92367       115.44811    
      7100  -21126.038      113.79734     -21012.241      49.970964      49.920681      115.50389    
      7200  -21124.057      110.90881     -21013.148      49.969133      49.919041      115.55966    
      7300  -21125.856      113.40796     -21012.448      49.966968      49.917308      115.61543    
      7400  -21125.505      114.01485     -21011.49       49.964984      49.914904      115.6712     
      7500  -21122.583      113.57712     -21009.006      49.964564      49.913296      115.72697    
      7600  -21116.071      113.83237     -21002.239      49.961581      49.911134      115.78275    
      7700  -21112.425      113.04078     -20999.384      49.959967      49.910209      115.83852    
      7800  -21113.203      112.78924     -21000.414      49.957248      49.909479      115.89429    
      7900  -21112.62       112.285       -21000.335      49.952387      49.908048      115.95006    
      8000  -21112.413      113.09027     -20999.322      49.949543      49.907327      116.00583    
      8100  -21109.909      111.50788     -20998.401      49.945961      49.90566       116.06161    
      8200  -21105.277      112.54451     -20992.733      49.942915      49.904616      116.11738    
      8300  -21103.983      116.13102     -20987.852      49.940113      49.903392      116.17315    
      8400  -21100.651      111.96505     -20988.686      49.935799      49.901534      116.22892    
      8500  -21099.813      111.1698      -20988.643      49.933016      49.901783      116.2847     
      8600  -21097.903      112.2453      -20985.657      49.927563      49.90031       116.34047    
      8700  -21095.655      114.03955     -20981.615      49.924269      49.90118       116.39624    
      8800  -21090.967      115.95966     -20975.008      49.919736      49.901083      116.45201    
      8900  -21087.524      116.18431     -20971.34       49.915816      49.900342      116.50778    
      9000  -21087.353      115.36134     -20971.992      49.91301       49.900296      116.56356    
      9100  -21085.944      113.97108     -20971.973      49.906971      49.897688      116.61933    
      9200  -21085.063      113.49399     -20971.569      49.903175      49.897299      116.6751     
      9300  -21082.118      112.12532     -20969.992      49.896879      49.894518      116.73087    
      9400  -21082.467      114.80904     -20967.658      49.893033      49.893346      116.78664    
      9500  -21077.667      116.23228     -20961.435      49.887866      49.891612      116.84242    
      9600  -21071.551      113.80535     -20957.745      49.882587      49.889559      116.89819    
      9700  -21072.594      115.37992     -20957.214      49.878805      49.889015      116.95396    
      9800  -21070.257      112.32825     -20957.928      49.873674      49.88693       117.00973    
      9900  -21065.866      110.6665      -20955.2        49.869697      49.885242      117.0655     
     10000  -21064.59       112.81071     -20951.779      49.865292      49.883711      117.12128    
     10100  -21061.382      112.69451     -20948.687      49.860958      49.882965      117.17705    
     10200  -21059.534      113.47605     -20946.058      49.856755      49.882203      117.23282    
     10300  -21059.105      112.66741     -20946.438      49.851705      49.880992      117.28859    
     10400  -21058.603      111.65406     -20946.949      49.845544      49.879272      117.34436    
     10500  -21055.734      112.4441      -20943.29       49.839433      49.877481      117.40014    
     10600  -21055.218      115.68183     -20939.536      49.833402      49.875576      117.45591    
     10700  -21050.852      115.62668     -20935.225      49.827006      49.873959      117.51168    
     10800  -21042.582      113.9657      -20928.616      49.821133      49.872559      117.56745    
     10900  -21038.948      114.44869     -20924.499      49.815193      49.870632      117.62322    
     11000  -21036.973      113.97414     -20922.999      49.809123      49.869313      117.679      
     11100  -21035.813      113.38931     -20922.423      49.801777      49.868209      117.73477    
     11200  -21036.079      114.88582     -20921.193      49.793886      49.865915      117.79054    
     11300  -21032.566      110.46827     -20922.098      49.789169      49.865116      117.84631    
     11400  -21032.662      110.73843     -20921.924      49.781902      49.860542      117.90208    
     11500  -21026.081      111.20921     -20914.872      49.777318      49.858638      117.95786    
     11600  -21024.09       115.13748     -20908.953      49.770799      49.855289      118.01363    
     11700  -21021.055      114.53666     -20906.518      49.763495      49.852352      118.0694     
     11800  -21019.432      113.80338     -20905.628      49.757637      49.85093       118.12517    
     11900  -21018.158      113.65228     -20904.505      49.749211      49.84604       118.18094    
     12000  -21011.968      112.82973     -20899.139      49.743567      49.843821      118.23672    
     12100  -21006.458      113.85361     -20892.604      49.736335      49.839491      118.29249    
     12200  -21004.462      114.92651     -20889.535      49.729244      49.835128      118.34826    
     12300  -20999.887      111.62463     -20888.262      49.724714      49.833327      118.40403    
     12400  -20998.907      112.08928     -20886.818      49.716166      49.826089      118.4598     
     12500  -20995.836      111.03136     -20884.804      49.710916      49.823183      118.51558    
     12600  -20996.221      113.78006     -20882.441      49.702959      49.816759      118.57135    
     12700  -20991.757      113.46066     -20878.296      49.695703      49.811764      118.62712    
     12800  -20989.415      116.84255     -20872.572      49.68982       49.808142      118.68289    
     12900  -20985.325      116.40918     -20868.915      49.680995      49.80086       118.73866    
     13000  -20982.496      112.93082     -20869.565      49.675046      49.798544      118.79444    
     13100  -20981.199      112.89235     -20868.306      49.665131      49.792502      118.85021    
     13200  -20975.934      112.31452     -20863.619      49.655841      49.789642      118.90598    
     13300  -20971.516      113.6003      -20857.916      49.646126      49.786717      118.96175    
     13400  -20967.162      113.68601     -20853.476      49.634713      49.780521      119.01752    
     13500  -20964.466      114.30217     -20850.164      49.626714      49.777372      119.0733     
     13600  -20961.665      113.02771     -20848.637      49.615879      49.769548      119.12907    
     13700  -20960.807      110.95451     -20849.853      49.607648      49.765585      119.18484    
     13800  -20958.232      112.61595     -20845.616      49.598263      49.759779      119.24061    
     13900  -20956.22       116.36185     -20839.858      49.588159      49.752971      119.29639    
     14000  -20948.475      112.52862     -20835.946      49.579543      49.748222      119.35216    
     14100  -20947.795      114.74454     -20833.05       49.568664      49.740056      119.40793    
     14200  -20947.29       113.09505     -20834.195      49.559834      49.734038      119.4637     
     14300  -20943.087      110.92541     -20832.162      49.54914       49.726724      119.51947    
     14400  -20935.084      109.76762     -20825.316      49.539036      49.720125      119.57525    
     14500  -20931.579      112.27363     -20819.305      49.528084      49.712527      119.63102    
     14600  -20928.019      113.14591     -20814.873      49.515856      49.704244      119.68679    
     14700  -20927.011      115.16139     -20811.849      49.503616      49.697977      119.74256    
     14800  -20923.658      113.03367     -20810.624      49.489567      49.689622      119.79833    
     14900  -20918.248      107.92144     -20810.327      49.476936      49.683992      119.85411    
     15000  -20920.812      113.19598     -20807.616      49.462717      49.676307      119.90988    
     15100  -20914.646      114.59126     -20800.055      49.449656      49.669048      119.96565    
     15200  -20907.903      114.30955     -20793.593      49.437231      49.660942      120.02142    
     15300  -20906.508      115.6672      -20790.841      49.423877      49.650586      120.07719    
     15400  -20900.819      111.49234     -20789.327      49.411457      49.641333      120.13297    
     15500  -20899.849      113.74896     -20786.1        49.397295      49.630755      120.18874    
     15600  -20892.187      111.17364     -20781.013      49.383715      49.621722      120.24451    
     15700  -20888.408      114.06134     -20774.346      49.369153      49.610371      120.30028    
     15800  -20887.223      116.0868      -20771.136      49.354919      49.5997        120.35605    
     15900  -20882.892      111.54463     -20771.347      49.34032       49.588401      120.41183    
     16000  -20880.464      111.72033     -20768.744      49.324376      49.576074      120.4676     
     16100  -20877.469      112.19153     -20765.277      49.309821      49.566381      120.52337    
     16200  -20875.325      114.64103     -20760.684      49.292608      49.553669      120.57914    
     16300  -20867.642      115.22352     -20752.418      49.27672       49.543557      120.63491    
     16400  -20863.775      116.49047     -20747.284      49.259186      49.532491      120.69069    
     16500  -20859.242      113.45946     -20745.783      49.240529      49.520784      120.74646    
     16600  -20859.052      115.15238     -20743.899      49.222174      49.509629      120.80223    
     16700  -20854.464      113.21261     -20741.251      49.202915      49.496276      120.858      
     16800  -20849.483      111.89211     -20737.591      49.185094      49.483083      120.91377    
     16900  -20843.63       113.064       -20730.566      49.167454      49.468065      120.96955    
     17000  -20842.164      117.77823     -20724.386      49.149786      49.452866      121.02532    
     17100  -20837.727      113.93608     -20723.791      49.132639      49.438681      121.08109    
     17200  -20835.067      112.12156     -20722.945      49.113611      49.422091      121.13686    
     17300  -20831.453      111.43536     -20720.017      49.095879      49.407638      121.19263    
     17400  -20828.252      113.82112     -20714.431      49.076423      49.39173       121.24841    
     17500  -20821.556      114.67915     -20706.877      49.055859      49.376098      121.30418    
     17600  -20817.327      114.88865     -20702.438      49.035479      49.3626        121.35995    
     17700  -20816.677      116.85565     -20699.821      49.01231       49.346551      121.41572    
     17800  -20810.8        113.4061      -20697.394      48.990359      49.332455      121.47149    
     17900  -20808.491      113.55939     -20694.932      48.967723      49.316189      121.52727    
     18000  -20803.703      112.81413     -20690.889      48.944541      49.299989      121.58304    
     18100  -20799.408      113.4124      -20685.996      48.922908      49.28525       121.63881    
     18200  -20794.698      114.62523     -20680.073      48.899868      49.266696      121.69458    
     18300  -20789.917      113.63373     -20676.283      48.879082      49.25048       121.75035    
     18400  -20789.303      114.16704     -20675.135      48.857379      49.231766      121.80613    
     18500  -20784.203      111.64398     -20672.559      48.835866      49.211961      121.8619     
     18600  -20777.976      112.07205     -20665.904      48.816225      49.194724      121.91767    
     18700  -20771.769      113.66046     -20658.109      48.793792      49.173866      121.97344    
     18800  -20768.372      113.80699     -20654.565      48.772469      49.155931      122.02921    
     18900  -20765.601      112.93044     -20652.671      48.749471      49.13724       122.08499    
     19000  -20762.558      111.85764     -20650.7        48.725734      49.118718      122.14076    
     19100  -20758.442      110.4296      -20648.012      48.703104      49.102181      122.19653    
     19200  -20757.272      111.69884     -20645.573      48.678607      49.082693      122.2523     
     19300  -20753.311      113.12789     -20640.183      48.656599      49.066111      122.30807    
     19400  -20746.014      113.98503     -20632.029      48.632543      49.046318      122.36385    
     19500  -20739.316      113.15226     -20626.164      48.61004       49.028198      122.41962    
     19600  -20733.618      112.64911     -20620.969      48.587593      49.009904      122.47539    
     19700  -20731.377      115.80547     -20615.572      48.563854      48.989655      122.53116    
     19800  -20729.617      115.81493     -20613.802      48.542396      48.973029      122.58694    
     19900  -20722.068      109.61627     -20612.452      48.517639      48.952985      122.64271    
     20000  -20723.028      115.05763     -20607.97       48.495573      48.936425      122.69848    
     20100  -20713.994      113.31706     -20600.676      48.472462      48.918747      122.75425    
     20200  -20714.403      121.13842     -20593.264      48.449479      48.900489      122.81002    
     20300  -20706.221      114.86794     -20591.353      48.42863       48.883736      122.8658     
     20400  -20702.679      113.10206     -20589.577      48.405654      48.86348       122.92157    
     20500  -20698.371      113.16067     -20585.211      48.385607      48.846591      122.97734    
     20600  -20692.479      112.90793     -20579.571      48.363758      48.828136      123.03311    
     20700  -20688.424      115.65025     -20572.774      48.342236      48.810823      123.08888    
     20800  -20681.984      115.25103     -20566.733      48.321436      48.794387      123.14466    
     20900  -20676.454      113.71499     -20562.739      48.298872      48.775727      123.20043    
     21000  -20677.16       114.46855     -20562.691      48.279511      48.759661      123.2562     
     21100  -20672.71       112.64779     -20560.062      48.25924       48.741146      123.31197    
     21200  -20666.2        111.63874     -20554.561      48.240637      48.723718      123.36774    
     21300  -20662.764      116.16437     -20546.6        48.222499      48.707162      123.42352    
     21400  -20655.814      114.71209     -20541.102      48.20309       48.690316      123.47929    
     21500  -20652.192      114.8632      -20537.329      48.184628      48.67611       123.53506    
     21600  -20648.935      115.45355     -20533.482      48.164387      48.66115       123.59083    
     21700  -20642.652      113.68656     -20528.965      48.144618      48.646779      123.6466     
     21800  -20635.446      112.19362     -20523.252      48.12558       48.632877      123.70238    
     21900  -20632.741      116.44353     -20516.297      48.106032      48.617712      123.75815    
     22000  -20627.255      116.53739     -20510.718      48.088006      48.603532      123.81392    
     22100  -20623.705      113.71011     -20509.995      48.070146      48.589041      123.86969    
     22200  -20619.545      111.74683     -20507.798      48.052331      48.574697      123.92546    
     22300  -20617.26       114.21868     -20503.041      48.035662      48.561755      123.98124    
     22400  -20608.855      111.65331     -20497.202      48.018277      48.547592      124.03701    
     22500  -20603.51       114.13356     -20489.377      48.002364      48.534429      124.09278    
     22600  -20601.203      118.5516      -20482.651      47.986311      48.521232      124.14855    
     22700  -20596.167      115.91826     -20480.248      47.970605      48.508035      124.20432    
     22800  -20590.792      111.23011     -20479.562      47.956621      48.496164      124.2601     
     22900  -20585.731      111.78376     -20473.947      47.940936      48.481812      124.31587    
     23000  -20579.907      113.39009     -20466.517      47.928098      48.469395      124.37164    
     23100  -20576.867      117.1266      -20459.74       47.913487      48.455464      124.42741    
     23200  -20570.332      114.07219     -20456.259      47.900111      48.442814      124.48318    
     23300  -20567.754      110.77179     -20456.982      47.886944      48.430461      124.53896    
     23400  -20565.522      112.94145     -20452.58       47.872697      48.417676      124.59473    
     23500  -20557.8        113.21347     -20444.586      47.860423      48.407507      124.6505     
     23600  -20552.017      114.57344     -20437.444      47.84667       48.395665      124.70627    
     23700  -20546.885      114.09707     -20432.788      47.834823      48.385132      124.76204    
     23800  -20543.04       112.11812     -20430.922      47.823053      48.373767      124.81782    
     23900  -20540.668      112.42302     -20428.245      47.811084      48.361413      124.87359    
     24000  -20534.588      114.14912     -20420.438      47.800788      48.350564      124.92936    
     24100  -20524.16       112.65699     -20411.503      47.788332      48.338088      124.98513    
     24200  -20521.122      114.44939     -20406.673      47.777254      48.328214      125.0409     
     24300  -20518.52       114.13222     -20404.388      47.765268      48.31911       125.09668    
     24400  -20514.838      112.42435     -20402.414      47.750988      48.309767      125.15245    
     24500  -20510.804      112.34542     -20398.459      47.739418      48.303492      125.20822    
     24600  -20502.662      110.66977     -20391.993      47.724531      48.294252      125.26399    
     24700  -20497.877      111.99703     -20385.88       47.713208      48.287258      125.31976    
     24800  -20493.721      114.53019     -20379.191      47.70149       48.279199      125.37554    
     24900  -20487.394      114.86322     -20372.53       47.68887       48.269903      125.43131    
     25000  -20483.717      117.09426     -20366.623      47.680483      48.263064      125.48708    
     25100  -20478.145      114.96804     -20363.177      47.668196      48.2525        125.54285    
     25200  -20474.656      112.98211     -20361.673      47.659555      48.244747      125.59863    
     25300  -20466.884      109.62349     -20357.261      47.648786      48.235521      125.6544     
     25400  -20465.517      115.60934     -20349.908      47.638152      48.22678       125.71017    
     25500  -20458.031      116.01671     -20342.014      47.629194      48.218776      125.76594    
     25600  -20451.836      115.82745     -20336.009      47.618848      48.208921      125.82171    
     25700  -20443.927      110.2324      -20333.694      47.612107      48.201137      125.87749    
     25800  -20443.895      112.11411     -20331.781      47.602945      48.191498      125.93326    
     25900  -20438.074      111.43131     -20326.643      47.594435      48.183207      125.98903    
     26000  -20430.409      112.47924     -20317.93       47.585624      48.175674      126.0448     
     26100  -20424.039      112.7744      -20311.264      47.574985      48.168079      126.10057    
     26200  -20420.925      114.03334     -20306.892      47.565187      48.161853      126.15635    
     26300  -20418.932      115.10658     -20303.825      47.55433       48.155256      126.21212    
     26400  -20412.047      111.83402     -20300.213      47.544394      48.148555      126.26789    
     26500  -20408.94       114.58737     -20294.352      47.534675      48.142305      126.32366    
     26600  -20400.288      112.57167     -20287.716      47.523881      48.135118      126.37943    
     26700  -20395.581      114.26447     -20281.317      47.514683      48.128719      126.43521    
     26800  -20386.932      112.4967      -20274.435      47.505248      48.121099      126.49098    
     26900  -20382.751      117.03637     -20265.715      47.496522      48.11359       126.54675    
     27000  -20375.591      113.25328     -20262.338      47.488577      48.106861      126.60252    
     27100  -20372.721      111.92387     -20260.797      47.47854       48.098965      126.65829    
     27200  -20370.679      114.38485     -20256.294      47.471024      48.093065      126.71407    
     27300  -20363.932      113.73762     -20250.194      47.461359      48.085615      126.76984    
     27400  -20358.105      114.40981     -20243.696      47.453393      48.07951       126.82561    
     27500  -20351.27       113.31696     -20237.953      47.445307      48.072802      126.88138    
     27600  -20346.282      112.92015     -20233.362      47.435964      48.064588      126.93715    
     27700  -20342.407      111.96101     -20230.446      47.429863      48.058825      126.99293    
     27800  -20338.003      110.7594      -20227.244      47.420145      48.050632      127.0487     
     27900  -20333.825      113.08959     -20220.735      47.413079      48.044184      127.10447    
     28000  -20323.947      113.32303     -20210.624      47.405466      48.037809      127.16024    
     28100  -20318.257      113.86652     -20204.391      47.394334      48.030895      127.21601    
     28200  -20313.359      113.68514     -20199.674      47.385911      48.026544      127.27179    
     28300  -20311.913      114.63395     -20197.279      47.375378      48.020084      127.32756    
     28400  -20304.946      109.874       -20195.072      47.365598      48.013759      127.38333    
     28500  -20301.673      112.42659     -20189.246      47.358046      48.008544      127.4391     
     28600  -20293.456      111.49137     -20181.964      47.347877      48.000889      127.49487    
     28700  -20289.54       115.01315     -20174.527      47.341232      47.994803      127.55065    
     28800  -20282.248      115.11887     -20167.129      47.333702      47.987678      127.60642    
     28900  -20276.753      115.1643      -20161.589      47.32537       47.97988       127.66219    
     29000  -20272.666      113.79616     -20158.87       47.319334      47.973684      127.71796    
     29100  -20265.75       108.84806     -20156.902      47.310477      47.96591       127.77373    
     29200  -20262.337      112.29751     -20150.039      47.302561      47.959575      127.82951    
     29300  -20256.393      115.08444     -20141.309      47.294162      47.953415      127.88528    
     29400  -20250.061      115.01753     -20135.044      47.284777      47.947428      127.94105    
     29500  -20243.77       113.64902     -20130.121      47.276705      47.942696      127.99682    
     29600  -20237.961      112.25711     -20125.704      47.266288      47.936699      128.05259    
     29700  -20236.151      112.52977     -20123.621      47.25714       47.932076      128.10837    
     29800  -20228.995      110.34191     -20118.654      47.247103      47.926521      128.16414    
     29900  -20223.619      114.66492     -20108.954      47.237643      47.921156      128.21991    
     30000  -20215.148      113.22495     -20101.923      47.22918       47.916268      128.27568    
     30100  -20212.592      116.13454     -20096.457      47.219412      47.91006       128.33145    
     30200  -20203.915      111.40872     -20092.506      47.212139      47.905125      128.38723    
     30300  -20199.818      110.35563     -20089.462      47.203235      47.898626      128.443      
     30400  -20194.103      108.95789     -20085.146      47.195398      47.892263      128.49877    
     30500  -20188.44       113.16575     -20075.274      47.187289      47.885216      128.55454    
     30600  -20182.516      115.00918     -20067.507      47.178351      47.877382      128.61032    
     30700  -20179.035      116.38142     -20062.653      47.172153      47.871548      128.66609    
     30800  -20171.645      112.09414     -20059.551      47.162793      47.86432       128.72186    
     30900  -20167.162      112.32603     -20054.836      47.154345      47.857984      128.77763    
     31000  -20157.432      111.52496     -20045.907      47.14652       47.852913      128.8334     
     31100  -20150.276      113.01773     -20037.258      47.135731      47.846506      128.88918    
     31200  -20145.19       112.43064     -20032.759      47.126667      47.842086      128.94495    
     31300  -20142.893      112.86705     -20030.026      47.115834      47.836773      129.00072    
     31400  -20138.474      113.08525     -20025.389      47.105186      47.831298      129.05649    
     31500  -20129.607      113.63986     -20015.968      47.096034      47.826748      129.11226    
     31600  -20122.243      115.13692     -20007.106      47.085719      47.820646      129.16804    
     31700  -20117.859      113.97924     -20003.88       47.077679      47.815797      129.22381    
     31800  -20113.456      112.26963     -20001.186      47.068657      47.809941      129.27958    
     31900  -20109.044      112.94711     -19996.096      47.059213      47.803689      129.33535    
     32000  -20101.981      113.86695     -19988.114      47.051314      47.798484      129.39112    
     32100  -20093.205      114.44918     -19978.756      47.041664      47.791938      129.4469     
     32200  -20088.611      114.99426     -19973.617      47.032892      47.786054      129.50267    
     32300  -20083.029      113.16191     -19969.867      47.023717      47.779448      129.55844    
     32400  -20079.362      113.48969     -19965.872      47.014817      47.772626      129.61421    
     32500  -20072.418      112.1339      -19960.284      47.006984      47.7661        129.66998    
     32600  -20065.675      113.30302     -19952.372      46.997587      47.758634      129.72576    
     32700  -20061.522      119.74916     -19941.773      46.989267      47.752847      129.78153    
     32800  -20052.785      116.4925      -19936.292      46.979293      47.74697       129.8373     
     32900  -20047.745      114.60313     -19933.142      46.969116      47.741614      129.89307    
     33000  -20044.499      114.46081     -19930.038      46.959833      47.737256      129.94884    
     33100  -20037.42       111.22489     -19926.195      46.949049      47.732064      130.00462    
     33200  -20030.967      110.43883     -19920.528      46.94004       47.727599      130.06039    
     33300  -20025.773      114.64333     -19911.13       46.930175      47.72136       130.11616    
     33400  -20018.259      115.69626     -19902.563      46.920458      47.714813      130.17193    
     33500  -20014.145      115.81535     -19898.33       46.911877      47.70897       130.2277     
     33600  -20006.778      111.97828     -19894.8        46.900849      47.701176      130.28348    
     33700  -20002.701      112.97964     -19889.722      46.892598      47.695467      130.33925    
     33800  -19994.294      111.15185     -19883.142      46.88315       47.688961      130.39502    
     33900  -19989.303      112.70617     -19876.597      46.872664      47.681913      130.45079    
     34000  -19982.979      112.59891     -19870.38       46.864587      47.676366      130.50656    
     34100  -19978.045      113.3721      -19864.673      46.854106      47.668692      130.56234    
     34200  -19972.206      111.78753     -19860.419      46.845501      47.66237       130.61811    
     34300  -19967.448      110.73116     -19856.717      46.836372      47.656438      130.67388    
     34400  -19961.004      110.98425     -19850.02       46.825711      47.650185      130.72965    
     34500  -19953.304      113.35539     -19839.948      46.817121      47.645345      130.78542    
     34600  -19947.914      115.66163     -19832.252      46.806655      47.638691      130.8412     
     34700  -19939.505      112.87163     -19826.633      46.795912      47.632897      130.89697    
     34800  -19938.062      114.50258     -19823.56       46.786053      47.628307      130.95274    
     34900  -19932.743      112.11313     -19820.63       46.773441      47.621957      131.00851    
     35000  -19925.572      112.06904     -19813.502      46.762847      47.617256      131.06428    
     35100  -19917.906      112.19545     -19805.711      46.75257       47.612137      131.12006    
     35200  -19912.101      114.18399     -19797.917      46.741422      47.604882      131.17583    
     35300  -19904.293      114.68513     -19789.608      46.733161      47.598692      131.2316     
     35400  -19897.446      114.82749     -19782.619      46.723155      47.590894      131.28737    
     35500  -19894.23       114.08655     -19780.144      46.71247       47.583422      131.34314    
     35600  -19888.537      111.20173     -19777.335      46.703273      47.578127      131.39892    
     35700  -19882.572      112.32548     -19770.247      46.691844      47.571362      131.45469    
     35800  -19872.41       112.00742     -19760.402      46.681507      47.565973      131.51046    
     35900  -19867.991      115.11652     -19752.874      46.670855      47.560365      131.56623    
     36000  -19861.667      114.19806     -19747.469      46.659268      47.553884      131.622      
     36100  -19857.54       113.48189     -19744.058      46.648828      47.548503      131.67778    
     36200  -19853.393      111.81842     -19741.575      46.637679      47.542583      131.73355    
     36300  -19848.155      112.99661     -19735.158      46.626511      47.536577      131.78932    
     36400  -19835.957      109.93877     -19726.019      46.616879      47.531711      131.84509    
     36500  -19830.739      111.66158     -19719.078      46.6056        47.525134      131.90087    
     36600  -19825.471      113.62155     -19711.849      46.594997      47.519097      131.95664    
     36700  -19817.195      112.55509     -19704.64       46.583874      47.512397      132.01241    
     36800  -19811.533      113.16505     -19698.368      46.572245      47.505228      132.06818    
     36900  -19806.475      112.32641     -19694.149      46.561771      47.49916       132.12395    
     37000  -19803.424      112.42993     -19690.994      46.55018       47.492306      132.17973    
     37100  -19796.046      111.67745     -19684.368      46.539125      47.485259      132.2355     
     37200  -19787.077      113.61716     -19673.459      46.529716      47.47913       132.29127    
     37300  -19781.864      115.10247     -19666.762      46.519066      47.472055      132.34704    
     37400  -19776.492      114.15151     -19662.341      46.508061      47.465391      132.40281    
     37500  -19769.609      111.3825      -19658.227      46.497133      47.459214      132.45859    
     37600  -19766.057      113.16688     -19652.89       46.485642      47.452504      132.51436    
     37700  -19757.169      113.60981     -19643.559      46.474731      47.446434      132.57013    
     37800  -19749.844      115.46127     -19634.382      46.464178      47.440108      132.6259     
     37900  -19742.726      113.63492     -19629.091      46.453793      47.433243      132.68167    
     38000  -19739.896      113.72158     -19626.174      46.443367      47.425937      132.73745    
     38100  -19733.06       111.75228     -19621.308      46.432427      47.417857      132.79322    
     38200  -19727.366      113.19124     -19614.175      46.421667      47.411016      132.84899    
     38300  -19718.926      112.21017     -19606.716      46.410614      47.40434       132.90476    
     38400  -19714.128      114.45089     -19599.677      46.39919       47.397122      132.96053    
     38500  -19706.94       113.92801     -19593.012      46.388707      47.390098      133.01631    
     38600  -19701.281      113.11242     -19588.168      46.377885      47.38331       133.07208    
     38700  -19693.874      109.65004     -19584.224      46.366494      47.376554      133.12785    
     38800  -19689.32       112.61454     -19576.705      46.355373      47.369843      133.18362    
     38900  -19681.656      114.41902     -19567.237      46.344079      47.362708      133.23939    
     39000  -19674.065      114.37632     -19559.689      46.332556      47.355217      133.29517    
     39100  -19667.626      113.95982     -19553.666      46.321659      47.347776      133.35094    
     39200  -19661.634      109.55622     -19552.078      46.310975      47.340082      133.40671    
     39300  -19659.876      112.07471     -19547.802      46.300216      47.333006      133.46248    
     39400  -19650.029      111.14418     -19538.885      46.289159      47.326204      133.51825    
     39500  -19643.515      113.52357     -19529.992      46.277908      47.318916      133.57403    
     39600  -19635.418      112.97071     -19522.447      46.267003      47.312071      133.6298     
     39700  -19630.546      114.33264     -19516.213      46.255777      47.305368      133.68557    
     39800  -19624.154      111.66664     -19512.487      46.243607      47.298191      133.74134    
     39900  -19621.443      111.31315     -19510.13       46.232345      47.291734      133.79711    
     40000  -19613.396      111.05042     -19502.345      46.220809      47.284533      133.85289    
     40100  -19604.899      112.3846      -19492.514      46.209461      47.277003      133.90866    
     40200  -19598.239      113.42334     -19484.816      46.198371      47.269165      133.96443    
     40300  -19590.932      112.43971     -19478.492      46.18753       47.260919      134.0202     
     40400  -19585.337      111.92877     -19473.408      46.17717       47.252439      134.07597    
     40500  -19581.988      111.1755      -19470.812      46.167099      47.243932      134.13175    
     40600  -19575.424      110.30746     -19465.117      46.15721       47.235992      134.18752    
     40700  -19568.37       113.26357     -19455.107      46.146409      47.227854      134.24329    
     40800  -19561.698      114.23951     -19447.458      46.136005      47.220607      134.29906    
     40900  -19554.787      113.76862     -19441.019      46.125221      47.212837      134.35483    
     41000  -19546.645      111.99639     -19434.649      46.114203      47.204643      134.41061    
     41100  -19541.833      114.46784     -19427.365      46.10364       47.197032      134.46638    
     41200  -19535.247      115.34832     -19419.899      46.092717      47.189259      134.52215    
     41300  -19527.581      113.15796     -19414.423      46.081208      47.181536      134.57792    
     41400  -19523.208      112.24884     -19410.96       46.069771      47.174542      134.63369    
     41500  -19517.757      111.84568     -19405.911      46.057485      47.166665      134.68947    
     41600  -19509.954      113.93771     -19396.016      46.045938      47.159384      134.74524    
     41700  -19499.973      113.18439     -19386.789      46.03473       47.151985      134.80101    
     41800  -19497.981      116.5226      -19381.458      46.022934      47.143724      134.85678    
     41900  -19489.914      112.38455     -19377.529      46.012241      47.13715       134.91256    
     42000  -19485.798      112.90174     -19372.896      46.00082       47.129322      134.96833    
     42100  -19479.599      113.61108     -19365.988      45.989957      47.121859      135.0241     
     42200  -19468.766      114.30562     -19354.46       45.980308      47.11486       135.07987    
     42300  -19462.789      115.35079     -19347.438      45.969487      47.10488       135.13564    
     42400  -19458.203      113.92305     -19344.28       45.959787      47.096501      135.19142    
     42500  -19452.148      112.08088     -19340.067      45.949687      47.087639      135.24719    
     42600  -19446.861      113.24004     -19333.621      45.938592      47.07846       135.30296    
     42700  -19437.028      112.19667     -19324.832      45.928217      47.071206      135.35873    
     42800  -19429.004      115.4256      -19313.578      45.916591      47.062351      135.4145     
     42900  -19422.607      115.04358     -19307.564      45.905547      47.054249      135.47028    
     43000  -19418.074      114.50781     -19303.566      45.895093      47.046639      135.52605    
     43100  -19410.943      111.81373     -19299.129      45.883823      47.037055      135.58182    
     43200  -19407.664      114.33688     -19293.327      45.874063      47.029253      135.63759    
     43300  -19399.541      113.42898     -19286.112      45.863145      47.020744      135.69336    
     43400  -19391.302      115.31779     -19275.984      45.851807      47.012902      135.74914    
     43500  -19382.063      114.97301     -19267.09       45.840762      47.005751      135.80491    
     43600  -19378.828      115.48698     -19263.341      45.829742      46.998074      135.86068    
     43700  -19373.851      113.8046      -19260.046      45.819018      46.990932      135.91645    
     43800  -19368.956      114.36758     -19254.588      45.808137      46.983453      135.97222    
     43900  -19360.175      112.15875     -19248.017      45.7976        46.975852      136.028      
     44000  -19352.631      114.4475      -19238.184      45.786583      46.967041      136.08377    
     44100  -19343.02       113.89141     -19229.129      45.775929      46.958486      136.13954    
     44200  -19336.288      112.01942     -19224.269      45.765687      46.950226      136.19531    
     44300  -19334.753      114.08244     -19220.67       45.755377      46.941494      136.25108    
     44400  -19328.449      114.059       -19214.39       45.745524      46.932443      136.30686    
     44500  -19320.929      113.81725     -19207.112      45.736068      46.923364      136.36263    
     44600  -19313.989      113.5363      -19200.453      45.726465      46.914365      136.4184     
     44700  -19308.945      113.8306      -19195.115      45.716782      46.904835      136.47417    
     44800  -19303.064      112.67553     -19190.389      45.707328      46.894959      136.52994    
     44900  -19295.295      111.30984     -19183.985      45.697696      46.885955      136.58572    
     45000  -19286.688      113.46021     -19173.228      45.687676      46.877756      136.64149    
     45100  -19283.128      117.85963     -19165.268      45.677287      46.869849      136.69726    
     45200  -19274.047      113.41868     -19160.628      45.667184      46.862603      136.75303    
     45300  -19267.015      111.16757     -19155.847      45.656372      46.854119      136.8088     
     45400  -19262.882      113.47326     -19149.408      45.646211      46.84644       136.86458    
     45500  -19255.107      114.20676     -19140.9        45.635872      46.838327      136.92035    
     45600  -19246.603      115.58374     -19131.019      45.625329      46.829421      136.97612    
     45700  -19238.533      112.95919     -19125.574      45.615144      46.822007      137.03189    
     45800  -19234.166      111.92343     -19122.243      45.603811      46.813979      137.08766    
     45900  -19230.197      113.23468     -19116.962      45.592842      46.806089      137.14344    
     46000  -19222.977      113.24729     -19109.73       45.582833      46.79871       137.19921    
     46100  -19213.452      114.45184     -19099          45.572345      46.789325      137.25498    
     46200  -19206.607      116.12693     -19090.48       45.562964      46.781386      137.31075    
     46300  -19203.04       116.16402     -19086.876      45.55395       46.773122      137.36652    
     46400  -19195.938      113.45052     -19082.488      45.544406      46.762831      137.4223     
     46500  -19191.304      115.39648     -19075.907      45.536633      46.753592      137.47807    
     46600  -19181.249      112.82634     -19068.422      45.528785      46.74319       137.53384    
     46700  -19175.393      115.3965      -19059.996      45.520539      46.732617      137.58961    
     46800  -19167.555      115.97208     -19051.583      45.512667      46.723996      137.64538    
     46900  -19160.839      113.46351     -19047.376      45.503165      46.714366      137.70116    
     47000  -19154.17       110.1407      -19044.029      45.49403       46.706587      137.75693    
     47100  -19150.891      113.83427     -19037.056      45.484535      46.69961       137.8127     
     47200  -19144.097      115.87731     -19028.219      45.473245      46.691215      137.86847    
     47300  -19133.699      114.35501     -19019.344      45.462619      46.684836      137.92425    
     47400  -19129.368      117.0806      -19012.287      45.45187       46.677742      137.98002    
     47500  -19122.879      112.89026     -19009.989      45.441128      46.669471      138.03579    
     47600  -19117.086      112.59425     -19004.492      45.431732      46.661687      138.09156    
     47700  -19111.539      115.04468     -18996.494      45.42342       46.653226      138.14733    
     47800  -19102.257      115.12044     -18987.137      45.415419      46.643118      138.20311    
     47900  -19093.531      114.05589     -18979.475      45.408527      46.633553      138.25888    
     48000  -19090.868      113.50811     -18977.36       45.401569      46.622696      138.31465    
     48100  -19085.343      113.05237     -18972.29       45.395134      46.611817      138.37042    
     48200  -19075.682      112.09316     -18963.589      45.388427      46.600628      138.42619    
     48300  -19068.938      115.12024     -18953.818      45.380489      46.590102      138.48197    
     48400  -19061.583      115.00581     -18946.578      45.372882      46.581834      138.53774    
     48500  -19055.258      113.65324     -18941.605      45.363912      46.573064      138.59351    
     48600  -19050.103      114.21085     -18935.892      45.354778      46.564565      138.64928    
     48700  -19044.531      115.01257     -18929.518      45.345493      46.556501      138.70505    
     48800  -19037.29       114.10128     -18923.189      45.336019      46.548308      138.76083    
     48900  -19030.636      111.92434     -18918.712      45.326789      46.540474      138.8166     
     49000  -19024.682      111.53192     -18913.15       45.317657      46.532207      138.87237    
     49100  -19016.149      113.3951      -18902.754      45.309889      46.524537      138.92814    
     49200  -19009.147      115.85846     -18893.288      45.301812      46.514863      138.98391    
     49300  -19000.599      113.83683     -18886.762      45.294474      46.504768      139.03969    
     49400  -18995.516      113.19706     -18882.318      45.287118      46.495589      139.09546    
     49500  -18990.272      111.65823     -18878.614      45.279052      46.486356      139.15123    
     49600  -18984.484      111.75273     -18872.731      45.271028      46.477642      139.207      
     49700  -18974.617      113.59204     -18861.025      45.26319       46.468314      139.26277    
     49800  -18969.241      117.42877     -18851.812      45.256201      46.459066      139.31855    
     49900  -18959.189      111.84858     -18847.341      45.249684      46.450587      139.37432    
     50000  -18959.004      115.26316     -18843.74       45.242511      46.441183      139.43009    
     50100  -18948.383      110.98547     -18837.397      45.23594       46.432036      139.48586    
     50200  -18939.825      111.25291     -18828.572      45.229251      46.422581      139.54163    
     50300  -18933.066      114.97983     -18818.086      45.222185      46.413051      139.59741    
     50400  -18930.411      119.31733     -18811.094      45.214661      46.403821      139.65318    
     50500  -18921.888      111.51213     -18810.376      45.20738       46.39547       139.70895    
     50600  -18917.259      113.04606     -18804.213      45.20008       46.387641      139.76472    
     50700  -18908.465      112.52401     -18795.941      45.191767      46.379156      139.82049    
     50800  -18904.068      116.95602     -18787.112      45.184262      46.371314      139.87627    
     50900  -18895.755      116.06857     -18779.686      45.176648      46.362556      139.93204    
     51000  -18891.099      115.27236     -18775.826      45.16923       46.35361       139.98781    
     51100  -18883.866      112.13919     -18771.727      45.162401      46.345022      140.04358    
     51200  -18877.944      114.07886     -18763.865      45.15548       46.335897      140.09935    
     51300  -18869.867      115.73814     -18754.129      45.148957      46.326866      140.15513    
     51400  -18859.59       112.72007     -18746.869      45.14169       46.318159      140.2109     
     51500  -18854.774      114.11658     -18740.657      45.133437      46.309426      140.26667    
     51600  -18849.308      114.94081     -18734.367      45.126179      46.302072      140.32244    
     51700  -18842.758      114.26642     -18728.492      45.118362      46.294195      140.37821    
     51800  -18834.65       110.70999     -18723.94       45.110484      46.286544      140.43399    
     51900  -18826.781      109.61777     -18717.164      45.103652      46.279681      140.48976    
     52000  -18821.126      114.52027     -18706.606      45.096438      46.271388      140.54553    
     52100  -18812.524      114.70425     -18697.819      45.090428      46.263437      140.6013     
     52200  -18806.548      114.42385     -18692.124      45.084037      46.254877      140.65707    
     52300  -18799.839      113.03514     -18686.804      45.076942      46.246307      140.71285    
     52400  -18793.808      113.798       -18680.01       45.070389      46.238776      140.76862    
     52500  -18785.721      112.35425     -18673.366      45.062012      46.230446      140.82439    
     52600  -18783.312      116.45616     -18666.856      45.053812      46.222976      140.88016    
     52700  -18774.054      113.18223     -18660.871      45.045846      46.215552      140.93593    
     52800  -18766.578      110.8382      -18655.74       45.038554      46.207909      140.99171    
     52900  -18761.948      113.12828     -18648.819      45.031253      46.200696      141.04748    
     53000  -18752.582      113.78887     -18638.794      45.023105      46.193211      141.10325    
     53100  -18743.538      114.69121     -18628.847      45.016209      46.186064      141.15902    
     53200  -18736.127      113.5385      -18622.588      45.009719      46.178397      141.2148     
     53300  -18732.915      114.97352     -18617.942      45.002259      46.169831      141.27057    
     53400  -18726.734      114.94027     -18611.794      44.996064      46.162332      141.32634    
     53500  -18718.039      113.23516     -18604.804      44.989672      46.155135      141.38211    
     53600  -18710.465      112.88686     -18597.578      44.982924      46.148227      141.43788    
     53700  -18705.651      114.15774     -18591.493      44.975252      46.141094      141.49366    
     53800  -18698.89       112.48735     -18586.403      44.96761       46.13393       141.54943    
     53900  -18693.314      112.65358     -18580.661      44.960674      46.127072      141.6052     
     54000  -18689.242      115.68314     -18573.559      44.953284      46.119332      141.66097    
     54100  -18677.873      114.33035     -18563.543      44.947209      46.11203       141.71674    
     54200  -18670.463      116.5193      -18553.944      44.941193      46.104219      141.77252    
     54300  -18664.515      116.14427     -18548.371      44.934918      46.096253      141.82829    
     54400  -18660.053      114.84735     -18545.206      44.928477      46.088741      141.88406    
     54500  -18652.081      114.00986     -18538.071      44.920647      46.081201      141.93983    
     54600  -18642.461      112.7577      -18529.704      44.913367      46.075117      141.9956     
     54700  -18634.974      114.27188     -18520.702      44.905795      46.069346      142.05138    
     54800  -18627.973      113.94613     -18514.027      44.897443      46.063297      142.10715    
     54900  -18623.221      112.05738     -18511.164      44.889884      46.057727      142.16292    
     55000  -18617.455      111.7666      -18505.688      44.882393      46.05189       142.21869    
     55100  -18608.781      111.04862     -18497.733      44.874694      46.045407      142.27446    
     55200  -18602.53       115.42        -18487.11       44.86836       46.038812      142.33024    
     55300  -18593.678      115.50458     -18478.174      44.861883      46.031169      142.38601    
     55400  -18589.361      115.8536      -18473.508      44.855708      46.023545      142.44178    
     55500  -18583.547      113.78698     -18469.76       44.849843      46.016245      142.49755    
     55600  -18574.786      112.55877     -18462.227      44.842596      46.008316      142.55332    
     55700  -18568.609      115.34514     -18453.264      44.836031      46.001767      142.6091     
     55800  -18560.726      115.78862     -18444.937      44.829396      45.995516      142.66487    
     55900  -18553.158      114.12447     -18439.034      44.821224      45.988831      142.72064    
     56000  -18546.889      111.51615     -18435.373      44.814434      45.983344      142.77641    
     56100  -18540.516      111.41113     -18429.105      44.807221      45.977705      142.83218    
     56200  -18533.34       112.68937     -18420.651      44.799028      45.971833      142.88796    
     56300  -18527.222      115.63329     -18411.588      44.791825      45.96706       142.94373    
     56400  -18519.914      115.52347     -18404.39       44.783295      45.961601      142.9995     
     56500  -18512.635      114.94466     -18397.691      44.775539      45.956171      143.05527    
     56600  -18506.217      114.45399     -18391.763      44.769475      45.951049      143.11104    
     56700  -18499.313      112.75167     -18386.561      44.761371      45.94419       143.16682    
     56800  -18493.366      110.83827     -18382.528      44.755188      45.938198      143.22259    
     56900  -18485.742      110.37272     -18375.369      44.74969       45.932348      143.27836    
     57000  -18475.866      113.6153      -18362.251      44.74177       45.925006      143.33413    
     57100  -18468.067      113.77371     -18354.293      44.735894      45.919325      143.3899     
     57200  -18463.826      113.86132     -18349.964      44.728978      45.91293       143.44568    
     57300  -18455.7        110.88265     -18344.817      44.721766      45.906214      143.50145    
     57400  -18448.801      111.13618     -18337.665      44.715891      45.900087      143.55722    
     57500  -18442.937      113.60341     -18329.334      44.708711      45.893579      143.61299    
     57600  -18437.922      118.8421      -18319.08       44.701814      45.887698      143.66876    
     57700  -18426.277      115.29962     -18310.977      44.695367      45.882582      143.72454    
     57800  -18422.535      115.15958     -18307.376      44.687961      45.877029      143.78031    
     57900  -18415.615      113.88658     -18301.728      44.681405      45.872194      143.83608    
     58000  -18406.796      112.25098     -18294.545      44.673775      45.866597      143.89185    
     58100  -18402.28       114.42608     -18287.853      44.66677       45.861922      143.94762    
     58200  -18392.717      108.95461     -18283.763      44.659022      45.856904      144.0034     
     58300  -18389.071      111.79061     -18277.281      44.651108      45.851911      144.05917    
     58400  -18378.472      112.03454     -18266.437      44.644261      45.847397      144.11494    
     58500  -18372.632      116.88706     -18255.745      44.635599      45.841428      144.17071    
     58600  -18366.428      117.09298     -18249.335      44.628936      45.83655       144.22649    
     58700  -18359.284      114.86716     -18244.417      44.6214        45.830918      144.28226    
     58800  -18349.698      111.08263     -18238.616      44.613745      45.824744      144.33803    
     58900  -18343.55       113.18234     -18230.368      44.60829       45.819735      144.3938     
     59000  -18334.253      114.22924     -18220.024      44.601         45.81324       144.44957    
     59100  -18322.651      114.44125     -18208.21       44.594583      45.807181      144.50535    
     59200  -18318.75       115.65985     -18203.09       44.589041      45.801648      144.56112    
     59300  -18314.991      116.74579     -18198.245      44.582187      45.795723      144.61689    
     59400  -18309.791      115.66292     -18194.128      44.575745      45.790975      144.67266    
     59500  -18302.454      113.60173     -18188.852      44.568695      45.786748      144.72843    
     59600  -18296.132      113.98445     -18182.148      44.56082       45.782214      144.78421    
     59700  -18286.105      112.38023     -18173.725      44.553769      45.7785        144.83998    
     59800  -18278.15       114.78813     -18163.362      44.545335      45.773453      144.89575    
     59900  -18269.736      116.35365     -18153.382      44.537897      45.768726      144.95152    
     60000  -18263.198      114.28319     -18148.914      44.530748      45.763978      145.00729    
     60100  -18255.53       111.51836     -18144.012      44.52295       45.758738      145.06307    
     60200  -18248.652      112.38567     -18136.266      44.515605      45.753863      145.11884    
     60300  -18242.37       113.29984     -18129.07       44.508857      45.749236      145.17461    
     60400  -18238.072      113.76402     -18124.308      44.501946      45.744192      145.23038    
     60500  -18229.455      110.86648     -18118.589      44.495438      45.73942       145.28615    
     60600  -18221.054      111.4605      -18109.594      44.488341      45.734404      145.34193    
     60700  -18213.02       116.03925     -18096.98       44.480781      45.72937       145.3977     
     60800  -18204.245      115.88041     -18088.365      44.474153      45.725112      145.45347    
     60900  -18198.673      115.40338     -18083.269      44.466379      45.719852      145.50924    
     61000  -18194.349      115.88722     -18078.462      44.459989      45.715267      145.56501    
     61100  -18183.822      111.61272     -18072.209      44.453301      45.710591      145.62079    
     61200  -18179.362      114.3428      -18065.019      44.446143      45.705363      145.67656    
     61300  -18170.171      112.74139     -18057.429      44.439919      45.700668      145.73233    
     61400  -18163.641      112.9215      -18050.72       44.432152      45.695277      145.7881     
     61500  -18155.668      111.77541     -18043.892      44.424989      45.690965      145.84387    
     61600  -18147.657      112.57591     -18035.081      44.417568      45.686931      145.89965    
     61700  -18139.134      114.90871     -18024.226      44.409446      45.682458      145.95542    
     61800  -18130.293      116.30012     -18013.993      44.402844      45.679161      146.01119    
     61900  -18122.312      112.87347     -18009.438      44.394997      45.674714      146.06696    
     62000  -18117.487      113.37923     -18004.108      44.387717      45.670563      146.12273    
     62100  -18109.439      112.87068     -17996.569      44.380473      45.665936      146.17851    
     62200  -18105.05       115.82689     -17989.223      44.373507      45.660936      146.23428    
     62300  -18095.408      112.40523     -17983.003      44.367309      45.65583       146.29005    
     62400  -18091.131      114.03821     -17977.093      44.360777      45.649893      146.34582    
     62500  -18081.62       112.52772     -17969.092      44.354751      45.644112      146.40159    
     62600  -18068.098      112.30097     -17955.797      44.348474      45.63862       146.45737    
     62700  -18060.124      114.0019      -17946.123      44.341204      45.633028      146.51314    
     62800  -18055.304      114.99846     -17940.305      44.334521      45.628496      146.56891    
     62900  -18047.124      112.831       -17934.293      44.327497      45.624198      146.62468    
     63000  -18040.18       113.4079      -17926.772      44.320445      45.619743      146.68045    
     63100  -18032.452      112.25055     -17920.202      44.313977      45.615043      146.73623    
     63200  -18024.886      111.19142     -17913.695      44.307757      45.609773      146.792      
     63300  -18017.919      110.95387     -17906.965      44.301601      45.604688      146.84777    
     63400  -18012.318      109.89671     -17902.421      44.294879      45.599267      146.90354    
     63500  -18003.889      109.52825     -17894.361      44.288362      45.594313      146.95931    
     63600  -17994.213      112.08794     -17882.126      44.28154       45.589512      147.01509    
     63700  -17985.981      114.08614     -17871.895      44.274274      45.584652      147.07086    
     63800  -17978.962      116.31588     -17862.646      44.266883      45.580063      147.12663    
     63900  -17970.529      114.85741     -17855.672      44.259875      45.575258      147.1824     
     64000  -17962.337      111.72684     -17850.611      44.25307       45.570281      147.23818    
     64100  -17956.4        114.28574     -17842.115      44.246785      45.565518      147.29395    
     64200  -17948.841      115.84127     -17833          44.240524      45.559931      147.34972    
     64300  -17936.887      113.30072     -17823.586      44.235046      45.554344      147.40549    
     64400  -17929.86       113.89909     -17815.961      44.229806      45.548792      147.46126    
     64500  -17921.56       111.40307     -17810.157      44.22405       45.543113      147.51704    
     64600  -17919.748      117.15027     -17802.598      44.218295      45.538106      147.57281    
     64700  -17907.017      113.32552     -17793.691      44.211157      45.53276       147.62858    
     64800  -17894.872      111.89787     -17782.975      44.204126      45.528158      147.68435    
     64900  -17887.76       115.89027     -17771.869      44.197304      45.524061      147.74012    
     65000  -17879.84       115.56057     -17764.279      44.189142      45.518325      147.7959     
     65100  -17875.506      116.88137     -17758.624      44.183226      45.514292      147.85167    
     65200  -17863.17       111.99592     -17751.174      44.175995      45.508666      147.90744    
     65300  -17856.434      113.56438     -17742.87       44.169579      45.503321      147.96321    
     65400  -17847.326      113.19444     -17734.132      44.164203      45.498387      148.01898    
     65500  -17840.535      112.63138     -17727.903      44.157569      45.492042      148.07476    
     65600  -17830.549      110.3083      -17720.24       44.152872      45.487712      148.13053    
     65700  -17822.603      112.4615      -17710.141      44.146332      45.482004      148.1863     
     65800  -17812.534      116.66388     -17695.87       44.140009      45.476998      148.24207    
     65900  -17803.607      118.11735     -17685.489      44.133731      45.472262      148.29784    
     66000  -17795.669      116.45113     -17679.218      44.126393      45.466325      148.35362    
     66100  -17786.795      114.78511     -17672.01       44.12116       45.461652      148.40939    
     66200  -17779.931      114.46766     -17665.464      44.114397      45.454888      148.46516    
     66300  -17769.3        111.5837      -17657.716      44.10937       45.449585      148.52093    
     66400  -17764.394      115.09704     -17649.297      44.103521      45.443636      148.5767     
     66500  -17750.708      111.08022     -17639.628      44.097119      45.437799      148.63248    
     66600  -17742.839      110.57089     -17632.268      44.091618      45.433274      148.68825    
     66700  -17734.927      110.58546     -17624.342      44.084059      45.427451      148.74402    
     66800  -17726.966      112.79772     -17614.168      44.078077      45.423235      148.79979    
     66900  -17718.784      116.60116     -17602.183      44.070979      45.417973      148.85556    
     67000  -17704.703      115.53513     -17589.168      44.064327      45.413188      148.91134    
     67100  -17696.795      116.47049     -17580.324      44.058024      45.408863      148.96711    
     67200  -17687.259      112.77833     -17574.481      44.050637      45.403305      149.02288    
     67300  -17681.177      115.01274     -17566.164      44.044854      45.398755      149.07865    
     67400  -17672.822      113.98766     -17558.834      44.038129      45.393179      149.13442    
     67500  -17663.111      113.17697     -17549.934      44.031702      45.38737       149.1902     
     67600  -17654.223      113.6552      -17540.568      44.0262        45.382256      149.24597    
     67700  -17648.741      115.09067     -17533.651      44.019496      45.376214      149.30174    
     67800  -17638.758      113.6388      -17525.12       44.013586      45.371119      149.35751    
     67900  -17625.658      112.30629     -17513.352      44.007156      45.365523      149.41328    
     68000  -17615.645      113.94013     -17501.705      44.001135      45.360085      149.46906    
     68100  -17609.04       117.01699     -17492.023      43.995671      45.354914      149.52483    
     68200  -17597.464      113.38795     -17484.076      43.98899       45.348702      149.5806     
     68300  -17589.037      115.40777     -17473.629      43.983362      45.343849      149.63637    
     68400  -17578.646      114.85383     -17463.792      43.976422      45.33796       149.69214    
     68500  -17568.347      112.56225     -17455.785      43.969782      45.332873      149.74792    
     68600  -17557.814      111.20426     -17446.61       43.962951      45.327812      149.80369    
     68700  -17550.801      114.15723     -17436.643      43.956278      45.322398      149.85946    
     68800  -17540.308      113.53285     -17426.775      43.950257      45.317665      149.91523    
     68900  -17530.745      111.42088     -17419.324      43.943216      45.311951      149.971      
     69000  -17523.862      115.92322     -17407.938      43.937158      45.307254      150.02678    
     69100  -17508.643      113.38787     -17395.255      43.93035       45.301872      150.08255    
     69200  -17499.397      113.57077     -17385.827      43.923893      45.296591      150.13832    
     69300  -17491.998      115.31461     -17376.683      43.917968      45.291609      150.19409    
     69400  -17483.99       117.18633     -17366.803      43.911197      45.285191      150.24986    
     69500  -17473.157      116.04276     -17357.114      43.906094      45.280284      150.30564    
     69600  -17464.708      117.12875     -17347.579      43.899421      45.274058      150.36141    
     69700  -17451.025      114.55135     -17336.473      43.893473      45.269203      150.41718    
     69800  -17442.713      115.96482     -17326.748      43.8872        45.26449       150.47295    
     69900  -17431.711      115.47716     -17316.234      43.87987       45.258713      150.52873    
     70000  -17419.687      114.27536     -17305.411      43.873797      45.25421       150.5845     
     70100  -17411.11       116.4796      -17294.63       43.866615      45.248369      150.64027    
     70200  -17400.344      115.11259     -17285.231      43.860332      45.243436      150.69604    
     70300  -17389.335      113.59226     -17275.743      43.853722      45.238381      150.75181    
     70400  -17381.995      116.62192     -17265.373      43.846838      45.232758      150.80759    
     70500  -17370.641      117.214       -17253.427      43.840742      45.227876      150.86336    
     70600  -17358.272      116.01758     -17242.254      43.834257      45.222389      150.91913    
     70700  -17347.3        116.57757     -17230.722      43.827827      45.21711       150.9749     
     70800  -17336.749      115.58257     -17221.166      43.821317      45.21183       151.03067    
     70900  -17324.597      114.48241     -17210.114      43.814355      45.206098      151.08645    
     71000  -17318.227      118.28627     -17199.94       43.808245      45.201311      151.14222    
     71100  -17303.362      115.07383     -17188.288      43.801391      45.195727      151.19799    
     71200  -17295.198      116.63143     -17178.566      43.794852      45.19061       151.25376    
     71300  -17284.91       116.66977     -17168.24       43.788605      45.185512      151.30953    
     71400  -17273.717      115.25704     -17158.46       43.781535      45.179546      151.36531    
     71500  -17262.327      113.74251     -17148.585      43.7757        45.174737      151.42108    
     71600  -17252.091      114.3549      -17137.736      43.769063      45.168715      151.47685    
     71700  -17240.261      114.33733     -17125.924      43.762858      45.163181      151.53262    
     71800  -17233.387      118.44906     -17114.938      43.756926      45.157934      151.58839    
     71900  -17219.883      116.7442      -17103.138      43.7504        45.151571      151.64417    
     72000  -17208.763      116.17641     -17092.586      43.74475       45.146196      151.69994    
     72100  -17197.736      115.89829     -17081.838      43.738146      45.140308      151.75571    
     72200  -17186.878      116.73874     -17070.139      43.731649      45.134807      151.81148    
     72300  -17174.607      116.64988     -17057.957      43.725207      45.129518      151.86725    
     72400  -17163.598      117.24909     -17046.349      43.718368      45.123541      151.92303    
     72500  -17151.883      116.52772     -17035.355      43.712448      45.118431      151.9788     
     72600  -17143.734      118.27402     -17025.46       43.70644       45.112703      152.03457    
     72700  -17130.088      115.31535     -17014.772      43.700295      45.1065        152.09034    
     72800  -17118.356      116.47827     -17001.878      43.694633      45.100844      152.14611    
     72900  -17107.731      116.94645     -16990.784      43.688234      45.094656      152.20189    
     73000  -17095.206      116.32451     -16978.881      43.681781      45.088953      152.25766    
     73100  -17082.772      115.67278     -16967.099      43.675285      45.083668      152.31343    
     73200  -17074.121      118.39332     -16955.727      43.668066      45.077937      152.3692     
[...]
    181600  -20886.998      114.07069     -20772.928      47.220174      38.894705      212.82609    
    181700  -20890.141      113.2741      -20776.867      47.215792      38.888433      212.88186    
    181800  -20890.887      113.30747     -20777.579      47.209291      38.882402      212.93763    
    181900  -20888.51       112.615       -20775.895      47.203188      38.876613      212.99341    
    182000  -20886.85       114.33422     -20772.516      47.199641      38.870962      213.04918    
    182100  -20885.3        115.13278     -20770.167      47.195037      38.864977      213.10495    
    182200  -20887.635      112.81132     -20774.824      47.187632      38.858278      213.16072    
    182300  -20889.14       111.54842     -20777.592      47.18325       38.852601      213.21649    
    182400  -20890.567      113.53192     -20777.035      47.178321      38.844911      213.27227    
    182500  -20888.721      114.20924     -20774.512      47.171004      38.837364      213.32804    
    182600  -20887.381      114.95029     -20772.431      47.161525      38.829708      213.38381    
    182700  -20889.052      114.8467      -20774.205      47.15487       38.822229      213.43958    
    182800  -20892.24       113.6885      -20778.552      47.148577      38.814721      213.49535    
    182900  -20890.718      111.96044     -20778.757      47.139381      38.80727       213.55113    
    183000  -20890.873      114.47714     -20776.396      47.129298      38.800396      213.6069     
    183100  -20889.52       115.61097     -20773.909      47.120786      38.792311      213.66267    
    183200  -20887.869      113.63311     -20774.236      47.111765      38.783283      213.71844    
    183300  -20887.985      112.78642     -20775.199      47.100836      38.774362      213.77421    
    183400  -20887.111      111.17343     -20775.938      47.092611      38.765628      213.82999    
    183500  -20890.939      115.06394     -20775.875      47.08817       38.756579      213.88576    
    183600  -20888.494      112.97769     -20775.516      47.084079      38.747974      213.94153    
    183700  -20887.414      113.35236     -20774.062      47.078227      38.740144      213.9973     
    183800  -20891.051      117.44589     -20773.605      47.075101      38.731765      214.05307    
    183900  -20888.99       114.01794     -20774.972      47.075553      38.724081      214.10885    
    184000  -20890.426      112.82085     -20777.605      47.071709      38.71558       214.16462    
    184100  -20889.775      111.50753     -20778.268      47.06463       38.707761      214.22039    
    184200  -20889.365      115.07175     -20774.294      47.057643      38.698993      214.27616    
    184300  -20886.58       114.6112      -20771.969      47.049269      38.690658      214.33193    
    184400  -20888.032      114.72011     -20773.312      47.036973      38.682994      214.38771    
    184500  -20887.221      111.76414     -20775.457      47.023622      38.674521      214.44348    
    184600  -20890.417      113.89157     -20776.525      47.014274      38.666044      214.49925    
    184700  -20888.689      112.75792     -20775.931      47.005197      38.657736      214.55502    
    184800  -20888.254      112.90704     -20775.347      46.99586       38.649584      214.61079    
    184900  -20889.906      114.48903     -20775.417      46.989287      38.640728      214.66657    
    185000  -20890.585      110.88502     -20779.7        46.984678      38.631688      214.72234    
    185100  -20891.915      111.43004     -20780.485      46.977344      38.62265       214.77811    
    185200  -20890.923      114.04694     -20776.876      46.968842      38.613367      214.83388    
    185300  -20888.66       113.76661     -20774.893      46.960716      38.603632      214.88965    
    185400  -20889.864      115.15473     -20774.709      46.949427      38.593603      214.94543    
    185500  -20890.14       114.17394     -20775.966      46.934702      38.584197      215.0012     
    185600  -20891.896      111.59129     -20780.305      46.921786      38.575386      215.05697    
    185700  -20893.219      112.94906     -20780.27       46.909243      38.56649       215.11274    
    185800  -20891.486      113.79267     -20777.693      46.89547       38.558515      215.16851    
    185900  -20889.809      113.57281     -20776.237      46.88267       38.549237      215.22429    
    186000  -20888.768      112.98795     -20775.78       46.875378      38.540231      215.28006    
    186100  -20889.733      114.22484     -20775.509      46.869158      38.532198      215.33583    
    186200  -20887.337      111.8698      -20775.468      46.858058      38.523624      215.3916     
    186300  -20888.837      112.18649     -20776.65       46.846956      38.515138      215.44738    
    186400  -20891.685      114.27723     -20777.407      46.835626      38.505409      215.50315    
    186500  -20892.656      114.79084     -20777.865      46.820807      38.495983      215.55892    
    186600  -20889.043      111.7988      -20777.244      46.803955      38.485877      215.61469    
    186700  -20887.898      113.44878     -20774.449      46.79003       38.475671      215.67046    
    186800  -20887.019      114.05781     -20772.962      46.777577      38.465831      215.72624    
    186900  -20888.546      113.12789     -20775.418      46.76361       38.455706      215.78201    
    187000  -20889.303      110.14191     -20779.161      46.751695      38.445914      215.83778    
    187100  -20891.519      112.99849     -20778.52       46.742063      38.435463      215.89355    
    187200  -20890.785      114.88054     -20775.904      46.731544      38.425255      215.94932    
    187300  -20887.557      113.13007     -20774.427      46.720875      38.415062      216.0051     
    187400  -20887.852      113.27153     -20774.581      46.712045      38.404345      216.06087    
    187500  -20889.551      114.22683     -20775.325      46.700664      38.393481      216.11664    
    187600  -20890.177      114.40783     -20775.769      46.685611      38.382904      216.17241    
    187700  -20889.93       113.98858     -20775.941      46.67007       38.371715      216.22818    
    187800  -20888.998      113.10365     -20775.895      46.65529       38.359574      216.28396    
    187900  -20888.641      111.67325     -20776.968      46.642875      38.348565      216.33973    
    188000  -20890.131      112.52052     -20777.61       46.632025      38.337164      216.3955     
    188100  -20889.778      113.26657     -20776.511      46.625647      38.326028      216.45127    
    188200  -20889.767      115.85296     -20773.914      46.620377      38.314434      216.50704    
    188300  -20885.736      113.37653     -20772.359      46.612482      38.303272      216.56282    
    188400  -20888.271      115.21935     -20773.052      46.602741      38.291823      216.61859    
    188500  -20891.814      114.33487     -20777.479      46.590857      38.27989       216.67436    
    188600  -20889.444      111.15791     -20778.286      46.57678       38.267963      216.73013    
    188700  -20890.4        113.69168     -20776.709      46.560122      38.256286      216.7859     
    188800  -20887.977      115.08591     -20772.891      46.543658      38.244575      216.84168    
    188900  -20885.974      114.28238     -20771.692      46.530527      38.232632      216.89745    
    189000  -20888.575      115.53676     -20773.038      46.520066      38.220869      216.95322    
    189100  -20888.856      113.84885     -20775.007      46.512124      38.209836      217.00899    
    189200  -20888.107      111.30875     -20776.798      46.507053      38.198544      217.06476    
    189300  -20890.763      113.22173     -20777.542      46.502887      38.188025      217.12054    
    189400  -20887.073      111.85497     -20775.218      46.495915      38.176579      217.17631    
    189500  -20888.181      116.40894     -20771.772      46.486258      38.164915      217.23208    
    189600  -20885.684      112.77099     -20772.913      46.47337       38.152788      217.28785    
    189700  -20889.793      113.23229     -20776.56       46.458874      38.139981      217.34362    
    189800  -20890.618      112.78786     -20777.831      46.444343      38.128402      217.3994     
    189900  -20890.104      113.02961     -20777.074      46.43132       38.116072      217.45517    
    190000  -20889.357      114.13354     -20775.224      46.422582      38.104478      217.51094    
    190100  -20889.942      117.85635     -20772.085      46.4179        38.093718      217.56671    
    190200  -20881.219      112.94117     -20768.278      46.413093      38.081935      217.62248    
    190300  -20886.505      115.82458     -20770.681      46.409424      38.070318      217.67826    
    190400  -20887.676      112.87077     -20774.805      46.402797      38.057722      217.73403    
    190500  -20890.113      113.2982      -20776.814      46.393078      38.045891      217.7898     
    190600  -20890.427      112.52324     -20777.904      46.378599      38.033983      217.84557    
    190700  -20888.301      111.34532     -20776.955      46.361021      38.021996      217.90134    
    190800  -20891.026      117.29529     -20773.731      46.344806      38.010826      217.95712    
    190900  -20888.645      116.89328     -20771.751      46.331007      37.999689      218.01289    
    191000  -20891.773      116.71701     -20775.056      46.320153      37.990793      218.06866    
    191100  -20891.741      113.6181      -20778.122      46.309436      37.980379      218.12443    
    191200  -20889.87       112.53922     -20777.33       46.303368      37.97103       218.1802     
    191300  -20887.389      112.48356     -20774.906      46.296886      37.960643      218.23598    
    191400  -20888.806      115.50089     -20773.305      46.288449      37.950464      218.29175    
    191500  -20891.236      117.14432     -20774.092      46.277375      37.940368      218.34752    
    191600  -20891.636      112.95385     -20778.682      46.26377       37.92987       218.40329    
    191700  -20890.052      111.17417     -20778.878      46.246731      37.91975       218.45907    
    191800  -20889.656      113.74291     -20775.913      46.227909      37.908905      218.51484    
    191900  -20891.918      117.90855     -20774.009      46.212894      37.897434      218.57061    
    192000  -20888.94       114.33239     -20774.608      46.199765      37.885886      218.62638    
    192100  -20889.924      114.22506     -20775.699      46.187066      37.87442       218.68215    
    192200  -20890.586      114.02656     -20776.56       46.177444      37.863048      218.73793    
    192300  -20889.89       113.37772     -20776.512      46.171385      37.851945      218.7937     
    192400  -20890          113.01389     -20776.986      46.162707      37.839883      218.84947    
    192500  -20890.897      114.0651      -20776.832      46.150124      37.827682      218.90524    
    192600  -20888.446      112.13323     -20776.313      46.137851      37.816463      218.96101    
    192700  -20888.994      114.04087     -20774.953      46.122767      37.805781      219.01679    
    192800  -20889.22       115.96326     -20773.257      46.10198       37.795808      219.07256    
    192900  -20889.575      115.13108     -20774.444      46.081781      37.785357      219.12833    
    193000  -20891.754      113.20235     -20778.551      46.065939      37.774554      219.1841     
    193100  -20889.58       110.72612     -20778.854      46.051801      37.76348       219.23987    
    193200  -20889.587      112.94823     -20776.638      46.040389      37.75277       219.29565    
    193300  -20887.529      112.74775     -20774.781      46.034688      37.742204      219.35142    
    193400  -20889.143      114.20483     -20774.938      46.031446      37.731655      219.40719    
    193500  -20890.083      114.45714     -20775.626      46.02462       37.722315      219.46296    
    193600  -20888.402      111.67823     -20776.724      46.016357      37.712716      219.51873    
    193700  -20890.375      112.29756     -20778.078      46.008343      37.702386      219.57451    
    193800  -20892.722      112.04968     -20780.673      45.995542      37.69228       219.63028    
    193900  -20891.111      112.07447     -20779.037      45.978833      37.681978      219.68605    
    194000  -20892.188      116.90806     -20775.28       45.966029      37.671979      219.74182    
    194100  -20888.288      114.08797     -20774.2        45.957757      37.661883      219.79759    
    194200  -20888.107      113.38566     -20774.721      45.949404      37.651844      219.85337    
    194300  -20888.578      110.40348     -20778.174      45.944173      37.642404      219.90914    
    194400  -20892.638      112.0436      -20780.595      45.944546      37.632736      219.96491    
    194500  -20889.161      110.59464     -20778.567      45.943988      37.623427      220.02068    
    194600  -20892.249      115.2848      -20776.964      45.93663       37.613668      220.07645    
    194700  -20892.457      114.70565     -20777.751      45.927922      37.605578      220.13223    
    194800  -20893.222      112.97237     -20780.25       45.916422      37.597826      220.188      
    194900  -20894.627      112.81681     -20781.811      45.899539      37.590978      220.24377    
    195000  -20894.348      112.84136     -20781.506      45.881854      37.584641      220.29954    
    195100  -20894.198      113.76251     -20780.436      45.86793       37.577243      220.35531    
    195200  -20892.047      111.75152     -20780.296      45.861085      37.571461      220.41109    
    195300  -20897.526      117.00454     -20780.521      45.854867      37.564434      220.46686    
    195400  -20893.465      111.78632     -20781.678      45.854201      37.558342      220.52263    
    195500  -20894.57       110.76786     -20783.803      45.857114      37.552259      220.5784     
    195600  -20896.712      112.28515     -20784.427      45.859115      37.546412      220.63417    
    195700  -20893.475      113.20678     -20780.269      45.856138      37.540497      220.68995    
    195800  -20894.354      116.12153     -20778.233      45.847585      37.534008      220.74572    
    195900  -20894.247      115.41318     -20778.834      45.835456      37.528378      220.80149    
    196000  -20894.864      113.34665     -20781.517      45.820397      37.521408      220.85726    
    196100  -20895.799      111.25282     -20784.546      45.808475      37.514687      220.91303    
    196200  -20898.029      112.55639     -20785.472      45.799961      37.508066      220.96881    
    196300  -20893.314      111.93075     -20781.383      45.795775      37.501856      221.02458    
    196400  -20893.152      114.76183     -20778.39       45.79539       37.496771      221.08035    
    196500  -20893.818      115.94265     -20777.875      45.794815      37.490934      221.13612    
    196600  -20895.542      115.56105     -20779.981      45.794532      37.486584      221.19189    
    196700  -20897.484      114.48608     -20782.998      45.788046      37.48052       221.24767    
    196800  -20895.572      112.14015     -20783.432      45.778607      37.47542       221.30344    
    196900  -20892.943      112.07641     -20780.867      45.76456       37.469878      221.35921    
    197000  -20891.096      114.24919     -20776.847      45.749854      37.464133      221.41498    
    197100  -20894.963      117.82653     -20777.136      45.740001      37.459866      221.47075    
    197200  -20893.469      114.13861     -20779.33       45.73446       37.455338      221.52653    
    197300  -20897.946      115.61674     -20782.329      45.735217      37.452622      221.5823     
    197400  -20896.382      112.76322     -20783.618      45.736888      37.448475      221.63807    
    197500  -20896.456      114.14187     -20782.315      45.738468      37.444602      221.69384    
    197600  -20893.337      115.6411      -20777.696      45.73648       37.440805      221.74962    
    197700  -20891.696      114.08643     -20777.61       45.729175      37.436412      221.80539    
    197800  -20892.779      112.69275     -20780.086      45.720068      37.432738      221.86116    
    197900  -20896.451      114.89101     -20781.56       45.708045      37.427192      221.91693    
    198000  -20894.413      112.86033     -20781.553      45.696928      37.423452      221.9727     
    198100  -20893.947      114.37049     -20779.577      45.687093      37.418812      222.02848    
    198200  -20890.593      115.33846     -20775.254      45.680823      37.414205      222.08425    
    198300  -20893.018      116.33584     -20776.682      45.676664      37.41015       222.14002    
    198400  -20892.992      112.78595     -20780.206      45.673553      37.404717      222.19579    
    198500  -20896.562      115.43226     -20781.13       45.673363      37.401126      222.25156    
    198600  -20894.87       113.93225     -20780.938      45.670481      37.395787      222.30734    
    198700  -20890.758      111.92134     -20778.836      45.664998      37.391284      222.36311    
    198800  -20892.317      117.14793     -20775.169      45.656404      37.386167      222.41888    
    198900  -20893.603      117.84878     -20775.754      45.649536      37.381673      222.47465    
    199000  -20891.73       111.29584     -20780.434      45.642733      37.378279      222.53042    
    199100  -20895.85       114.71325     -20781.137      45.635537      37.3738        222.5862     
    199200  -20893.572      112.86594     -20780.706      45.633292      37.370801      222.64197    
    199300  -20896.634      116.78779     -20779.846      45.632298      37.366906      222.69774    
    199400  -20890.927      113.0905      -20777.837      45.631075      37.363594      222.75351    
    199500  -20891.495      114.46862     -20777.026      45.627372      37.359858      222.80928    
    199600  -20893.398      113.15498     -20780.243      45.624197      37.356638      222.86506    
    199700  -20896.779      113.80996     -20782.969      45.618841      37.354403      222.92083    
    199800  -20893.2        110.83245     -20782.367      45.610602      37.351428      222.9766     
    199900  -20892.135      112.59546     -20779.54       45.605148      37.349218      223.03237    
    200000  -20892.286      115.78433     -20776.502      45.601742      37.346666      223.08814    
Loop time of 2379.96 on 8 procs for 200000 steps with 2928 atoms

Performance: 7.261 ns/day, 3.305 hours/ns, 84.035 timesteps/s
88.9% CPU use with 8 MPI tasks x 1 OpenMP threads

MPI task timing breakdown:
Section |  min time  |  avg time  |  max time  |%varavg| %total
---------------------------------------------------------------
Pair    | 610.28     | 1171.7     | 2244.4     |1560.6 | 49.23
Neigh   | 5.0191     | 10.564     | 17.438     | 147.8 |  0.44
Comm    | 37.723     | 823.29     | 1499       |1689.8 | 34.59
Output  | 0.85464    | 0.88906    | 1.1281     |   9.6 |  0.04
Modify  | 62.597     | 368.89     | 1283.5     |2721.1 | 15.50
Other   |            | 4.603      |            |       |  0.19

Nlocal:            366 ave        1302 max           0 min
Histogram: 3 1 2 0 0 1 0 0 0 1
Nghost:           1602 ave        4523 max          24 min
Histogram: 2 2 0 0 1 2 0 0 0 1
Neighs:              0 ave           0 max           0 min
Histogram: 8 0 0 0 0 0 0 0 0 0

Total # of neighbors = 0
Ave neighs/atom = 0
Neighbor list builds = 1241
Dangerous builds = 0
Total wall time: 0:39:40
