ITEM: TIMESTEP
60000
ITEM: NUMBER OF ATOMS
2928
ITEM: BOX BOUNDS pp pp pp
-2.2265374106942566e+01 2.2265374106942566e+01
-2.2881989056277877e+01 2.2881989056277877e+01
-1.7337828800000000e+01 1.2766946480000000e+02
ITEM: ATOMS type x y z f_avestress[1] f_avestress[2] f_avestress[3] f_avestress[4] f_avestress[5] f_avestress[6]
3 -4.53078 -6.48943 -16.7343 128208 -155341 1.44671e+07 169782 -39507.8 70576.4
3 -1.95779 -7.09242 -16.6819 -123541 93295.4 1.4237e+07 -99479.3 -8189.57 78616.8
3 -0.511614 -6.98504 -16.7119 -115830 99686.8 1.41436e+07 143938 -556.127 84102.3
3 2.07766 -6.56624 -16.7498 13170.8 -27902.2 1.41574e+07 -133880 92291.2 90317.1
3 -5.81073 -5.74859 -16.7262 -227707 188714 1.42637e+07 -30947.5 -28025.6 47729.4
3 3.46843 -5.95399 -16.723 -105424 -18078.9 1.43318e+07 111884 102111 24007.8
3 5.7989 -4.74397 -16.7798 134546 -280345 1.41287e+07 -24424.6 39770.3 -22734.4
3 -8.00322 -2.41152 -16.7222 -138979 83072.4 1.4275e+07 202177 -28083.4 40104.8
3 -7.54939 -3.78476 -16.7086 193454 -251739 1.42892e+07 -88655.7 -16776.9 7574.43
1 -0.924105 -2.20752 -16.7436 -631692 390772 596046 178203 675617 -406545
1 0.203605 -3.09087 -16.4505 888782 265358 -781609 -170617 -110121 401673
1 1.18653 -2.9504 -17.5627 -923629 105690 881169 487080 -463822 -94947.7
1 2.55245 -2.73755 -17.3011 -615426 -346097 658503 -453371 -564935 -421060
1 3.0172 -2.73637 -15.9733 26068.8 94019.2 -345189 51951.8 865185 602604
3 6.89872 -3.85646 -16.7778 -285128 124241 1.4205e+07 -5545.7 21577 23522.7
1 -1.58697 -1.4813 -15.7992 303647 -510301 469168 66770.8 285240 -793460
1 -2.03239 -0.143229 -16.0681 232825 946770 -978726 -98658 -246113 310834
1 4.38961 -1.27087 -17.1807 -511886 -585804 880021 -568430 376022 386529
1 4.73928 0.0509293 -17.2311 100547 -1.12256e+06 978937 252452 93838.2 293081
1 4.17324 -1.87958 -15.8713 283100 147123 -429910 108141 -642789 -700947
3 8.16716 -1.58266 -16.7668 109736 -115134 1.42488e+07 176263 7042.52 -23938
3 8.52724 -0.184049 -16.7351 -73602 67447.5 1.42763e+07 -203242 -10129.8 13800.4
3 -3.9561 -6.66305 -15.1492 -183677 119225 1.44536e+07 -102945 -11619.8 57717.7
3 -4.55989 -6.51554 -13.5715 116077 -150119 1.44199e+07 181847 -24962.8 42617.5
3 -2.60119 -7.05626 -15.1412 -13759.2 -37096.3 1.42393e+07 208110 -1003.71 68291
3 -1.94305 -7.06511 -13.5527 -100801 69760.5 1.42736e+07 -108967 -8166.38 62418.4
3 -0.470401 -6.92586 -13.6034 -92690.7 66945.2 1.41457e+07 142869 10204.6 55060
3 0.117598 -6.97244 -15.131 -98467.5 62650.7 1.41585e+07 -88942.4 -4475.43 59510
3 1.54603 -6.62164 -15.1329 -161120 121568 1.40879e+07 72565 9971.26 66786.3
3 2.13931 -6.49289 -13.533 -30458.7 14724.9 1.41844e+07 -136158 -15307 21983.2
3 -6.20081 -5.36934 -15.1446 208081 -218409 1.4285e+07 46285.9 -37357 51609.8
3 -7.09088 -4.21573 -15.1156 -212893 213631 1.43096e+07 73098.8 -30809.9 24847.3
3 -5.84998 -5.77301 -13.5706 -235945 164921 1.42342e+07 -33008.3 -32416.9 28159.5
3 3.49723 -5.9879 -13.6102 -139863 138707 1.43192e+07 43407.1 -6912.04 85004.5
3 3.95813 -5.75567 -15.1691 129419 -175470 1.43603e+07 -124482 61035.7 109002
3 5.20132 -4.99848 -15.1935 -217483 114123 1.41085e+07 81341.7 -3153.99 69732.8
3 5.75984 -4.74325 -13.596 165047 -175311 1.41952e+07 -137205 8107.97 72973.6
3 -7.99581 -2.44204 -13.5382 -121702 143552 1.42681e+07 190391 -38257.8 -7464.71
3 -7.46831 -3.80981 -13.5689 218822 -189240 1.43207e+07 -111772 -7551.75 14569.4
1 0.736087 -3.15913 -15.1209 823363 -47980.5 -339320 -426154 -347175 -505351
1 2.16714 -2.95929 -14.8797 -337799 274403 336257 721019 794796 38000.9
3 6.92883 -3.84941 -13.6156 -173879 179381 1.42777e+07 -99843.7 -4867.11 6861.45
3 7.38036 -3.42735 -15.1826 166296 -221482 1.42315e+07 62127.1 -51258.8 43263.2
3 8.14504 -2.21367 -15.1667 -132712 156025 1.4184e+07 -169694 10798.5 -46530.2
3 -8.0267 -1.84935 -15.1136 100049 -99047.6 1.42934e+07 -208198 -20894.4 -18397.7
3 -8.26219 -0.399691 -15.1019 9826.61 -11392 1.42783e+07 234932 -24858.8 1051.59
1 -1.07497 -1.56559 -14.434 102881 75622.1 82107.2 312017 -290571 894135
1 0.0561841 -2.28134 -14.085 -959365 669246 651696 180691 -132071 409237
1 2.39204 -2.0981 -13.7436 -221628 438946 268517 -640040 -670356 30900.5
1 4.43306 -1.14721 -14.6399 460351 -381415 238072 671017 -86299.8 -706394
3 8.27843 -1.66579 -13.5622 192592 -238088 1.41199e+07 114758 71112.2 22788.5
3 8.41127 -0.23164 -13.5281 31112.8 -82847.4 1.41705e+07 -232713 30210.8 41406.1
3 -3.96446 -6.70164 -11.9758 -146668 108956 1.43817e+07 -116569 -27.7889 44891.6
3 -2.52477 -7.14058 -11.9812 5493.44 -37217 1.42821e+07 187709 7087.86 56404.6
3 0.10497 -6.93874 -12.0147 -94980.7 29943.4 1.41774e+07 -96467.2 8468.91 37723.5
3 1.54618 -6.60886 -11.9384 -129989 80291 1.42571e+07 72397.8 -12134.6 25240.2
3 -6.01351 -5.22133 -12.0016 192955 -221155 1.43023e+07 52452.8 8953.77 7996.55
3 -7.13221 -4.21922 -11.9675 -214128 210056 1.43037e+07 70903.9 3023.28 -12952.6
3 4.12006 -5.90041 -12.021 11580.3 -99198.3 1.42181e+07 -190257 63132.5 74739.7
3 5.27396 -5.05051 -11.9961 -227907 153263 1.43409e+07 -22301.3 72998.5 63758.9
3 7.24088 -3.40609 -11.9849 206295 -229979 1.42724e+07 -8709.23 23371.8 5917.18
3 8.10801 -2.23902 -11.9256 -139181 95758.1 1.41877e+07 -201555 90684.4 28655
3 -8.13678 -1.81882 -11.9576 89073.8 -121362 1.42177e+07 -221757 -33229 44058.1
3 -8.39012 -0.36431 -11.9902 17716.9 -17375.9 1.43785e+07 235066 -22942.1 46196.3
1 1.10623 -1.70865 -13.2534 875751 -445373 -84434.7 383550 449979 -516785
1 0.973095 -0.431489 -12.7067 793332 -959164 195644 74993.1 147111 353838
1 3.52479 -1.21922 -13.572 280196 -172513 352223 -738915 30501.5 595284
3 -4.5287 -6.56468 -10.4259 111404 -163402 1.42965e+07 171889 -26032.6 39744
3 -1.91169 -7.09982 -10.4704 -114715 39529.6 1.42329e+07 -117551 67223.5 43433.5
3 -0.444341 -7.0376 -10.4285 -110749 47593.2 1.42108e+07 135610 46342.9 40044.5
3 2.18942 -6.54674 -10.4175 -70503.4 -5923.41 1.42474e+07 -147545 14897.6 28030.5
3 3.59114 -6.04291 -10.3828 -209300 116001 1.41353e+07 28404.6 28390.8 60329.8
3 -5.75435 -5.75241 -10.4008 -224336 178226 1.44006e+07 -23728.3 7066.84 24982.6
3 5.77546 -4.78712 -10.3954 165476 -192855 1.4438e+07 -117277 -1029.05 17644.5
3 -7.94462 -2.35715 -10.4069 -130868 113097 1.42153e+07 205008 -5617.19 49937.6
3 -7.35556 -3.65316 -10.4026 188411 -231858 1.4297e+07 -96890.3 15338.9 12775.2
3 6.90694 -3.872 -10.3593 -208576 171122 1.41801e+07 -104341 -8059.58 9975.86
2 2.69931 -0.633356 -9.43566 -314220 287533 239118 -869442 -154745 -386998
3 8.24977 -1.66652 -10.3427 188646 -158877 1.41872e+07 151600 72583.7 8796.35
3 8.36137 -0.202597 -10.3453 8967.09 16959.5 1.42598e+07 -212300 64622.9 1723.85
3 -3.99316 -6.75288 -8.81923 -201030 111332 1.42203e+07 -91291.3 43866.4 19467.1
3 -2.51002 -7.00012 -8.85248 -42474.9 -34436.6 1.41743e+07 205703 66944.2 43361.8
3 0.146539 -6.93071 -8.81639 -68441.1 59637.3 1.42081e+07 -92655.5 31239.8 37899.6
3 -0.462789 -6.95124 -7.20103 -59488.6 85807.4 1.41871e+07 146488 39139.5 5816.35
3 1.60158 -6.64939 -8.83565 -108825 111875 1.4218e+07 83629.8 33793.5 30189.6
3 2.13944 -6.45841 -7.24602 8474.52 -59435.8 1.42183e+07 -123536 22819.9 5535.66
3 -6.12873 -5.33294 -8.8045 207579 -228016 1.44492e+07 55561.8 37229.9 17222.3
3 -7.15727 -4.27028 -8.8482 -222745 183369 1.42017e+07 81854.4 18498.4 -6812.34
3 4.00605 -5.77402 -8.78966 58780.4 -77982 1.41031e+07 -163413 13406 -8381.18
3 5.27846 -5.01427 -8.79053 -176272 178646 1.44233e+07 8669.1 4006.09 -9112.02
3 -8.06901 -2.42552 -7.28012 -147967 82478.4 1.40993e+07 219964 45601.5 6681.51
3 -7.44182 -3.75523 -7.24664 196744 -267103 1.41772e+07 -75357.6 15653.1 25678.1
2 0.103785 -2.23642 -7.53824 718165 89628.2 -432091 -571059 192622 611252
2 1.43351 -2.36684 -8.15213 -149295 -118656 619987 829275 -542801 -73932.5
2 2.62413 -2.59892 -7.3963 -158110 361098 60390.6 120601 -1.02886e+06 -337427
2 3.82413 -1.8909 -7.58274 750860 168281 -635098 114543 545063 563285
3 7.2977 -3.39596 -8.77205 219603 -204283 1.4171e+07 -17977 19559.2 -7768.1
3 8.10097 -2.18523 -8.71999 -111162 125891 1.40934e+07 -192123 72514.6 -31190.3
3 -8.26872 -0.367739 -8.77335 14959.3 -41794.1 1.43277e+07 237249 9558.27 91428.8
3 -8.16872 -1.82166 -8.82124 105632 -121969 1.41577e+07 -214988 22213.5 66600.2
2 0.316681 -0.554055 -9.09632 734141 -715937 160437 175081 -453045 571363
2 -0.528022 -1.08346 -8.07692 -741433 557881 369769 422469 397002 -548710
2 1.53256 -1.29382 -9.14039 -358480 721059 -50834.8 -508953 707876 -43017.5
2 3.9236 -0.975811 -8.69572 829106 -694663 327578 515935 195285 473479
3 -3.90076 -6.68627 -5.68358 -209820 118621 1.42349e+07 -84670.5 28175.2 -23689.7
3 -4.47304 -6.50153 -7.25898 99347 -153873 1.41753e+07 178591 40374.6 -13782
3 -1.93485 -6.99132 -7.24218 -72197.9 79032.4 1.42255e+07 -93495.2 45830.2 4172.24
3 -2.51831 -7.07423 -5.65085 -46229.5 -26308.3 1.42112e+07 214791 8977.78 -39608.3
3 0.129824 -6.79151 -5.63456 -49988.9 59230.9 1.42221e+07 -96844.5 42757.9 -38418.8
3 1.54355 -6.60292 -5.65108 -96821.3 59834.6 1.42296e+07 84568.1 15044.7 38819.8
3 3.48791 -5.98708 -7.22935 -144999 54586.7 1.41304e+07 94013.5 41440.8 -60092.2
3 -6.14503 -5.28684 -5.66125 200934 -244739 1.43741e+07 72352.4 15782.3 27582.9
3 -5.62183 -5.61025 -7.25262 -221964 182256 1.44329e+07 -36772.5 41487.2 15219.8
3 4.01648 -5.73181 -5.64925 81735.5 -252047 1.41788e+07 -100107 -43115 12361
3 5.78462 -4.77166 -7.19068 159709 -256788 1.4347e+07 -75279.9 28987.5 -9536.8
3 5.36469 -5.13736 -5.63793 -227671 98228.2 1.42976e+07 96608.9 -47331.5 35525.8
3 -7.19311 -4.25904 -5.66978 -220705 163976 1.4266e+07 104042 17125.8 57021.2
2 0.0741307 -2.46734 -6.1492 737085 504933 -885598 -394472 -334562 -178961
2 1.23342 -2.79115 -5.39208 -372350 -86332.3 686097 573819 802096 -233383
2 2.50827 -2.8629 -5.99515 -601964 -153958 530877 -343417 820208 263260
2 3.67971 -2.35688 -5.32907 559021 127486 -1.09842e+06 363924 -342780 -20495.5
3 6.9309 -3.83112 -7.16381 -254105 149289 1.4134e+07 -41418.6 69838.1 -17435.1
3 7.34846 -3.40306 -5.63211 186321 -230641 1.41666e+07 49850.8 -15770.1 37364.5
3 8.11461 -2.2133 -5.5909 -216617 119222 1.41006e+07 -138679 -8404.98 21142.5
3 -8.13588 -1.84453 -5.68399 104969 -167996 1.41104e+07 -194005 60052.8 33988.6
3 -8.19287 -0.346676 -5.68324 29158.8 -79908.7 1.42098e+07 239247 22690.9 33908.7
2 -1.3022 -0.244419 -7.32259 238961 186817 -231735 94719.6 59665.7 -1.00451e+06
2 -1.39141 -0.4976 -5.90775 259957 -664901 662287 451.027 -27232.5 755715
2 4.43773 -1.71812 -6.33575 -1.01205e+06 -278920 870941 -524226 -190350 -240247
2 5.22033 -0.612194 -6.11008 12561 -1.17304e+06 870466 -123305 -70259.9 -447352
3 8.36991 -1.64733 -7.13164 134776 -202494 1.40473e+07 175870 95691 -32687.8
3 8.56403 -0.193137 -7.13003 -71923.6 -6458.46 1.4129e+07 -225527 114438 13686.4
3 -1.88515 -7.00536 -4.08176 -129183 68477.3 1.41955e+07 -103934 17564.9 -71544
3 -0.397288 -7.04274 -4.08799 -121904 79375.1 1.4251e+07 142474 28454 -80395.2
3 2.13632 -6.51549 -4.0377 34419.1 33586.4 1.43119e+07 -116656 -52454.3 -1378.25
3 -4.41808 -6.46327 -4.10186 104552 -145828 1.43117e+07 172609 52675.9 -65827.3
3 -5.66802 -5.63922 -4.07179 -238808 183570 1.42998e+07 -20182.2 53586.5 -5661.51
3 3.54741 -5.98523 -4.07008 -104847 148740 1.41746e+07 48934.8 -65036.4 49175.2
3 5.85657 -4.78402 -4.05447 167483 -182918 1.43269e+07 -112591 -49606.1 52797.8
3 -7.93776 -2.39375 -4.06882 -141715 80305.2 1.40858e+07 214561 66020.9 46089.8
3 -7.57427 -3.83402 -4.06933 198877 -250630 1.43428e+07 -83473 29234.4 58287.4
2 1.15302 -2.1428 -4.11447 -92627.2 572719 27578.1 -94156.6 -820523 364782
3 7.00874 -3.88461 -4.02348 -187122 184461 1.41478e+07 -95700.5 -16735.8 10480.2
2 -0.755504 -1.58131 -5.36607 -666451 126826 786828 509812 -292702 409679
2 -0.101545 -1.37848 -4.1306 718221 -104644 -455230 -24450.5 536027 -754947
2 -0.173333 -0.158965 -3.4198 584640 -951882 127673 -564348 209196 -334701
2 2.2928 -1.66015 -3.44664 -162093 41137.3 590935 -804346 -249468 211049
2 3.62692 -1.75771 -4.07994 836409 -212250 -365423 586013 121425 -733074
2 5.13266 0.0330827 -4.83978 197627 449701 -507571 -48715.2 158494 894125
2 4.35332 -0.525276 -3.82465 -739430 850082 235223 -262963 507675 474463
3 8.35045 -1.70117 -3.98383 163751 -194985 1.41217e+07 148975 -12855.4 26831.8
3 8.48685 -0.178334 -4.0326 -22333.8 -116.957 1.41936e+07 -230845 34406.5 -30769.1
3 -3.88569 -6.68241 -2.48158 -162284 128398 1.43912e+07 -109191 23265.9 -54109.5
3 -2.40625 -6.94581 -2.51505 -14974.6 -14718.7 1.41939e+07 200198 26195.2 -111428
3 0.119053 -6.84254 -2.47404 -29713.8 50129.2 1.43483e+07 -100067 -49832.3 -119354
3 1.61493 -6.64674 -2.50257 -81333.6 99246 1.42885e+07 80501 -67451.2 -37674.1
3 -6.11038 -5.27345 -2.46713 167711 -266887 1.42359e+07 99174 31805.2 30797
3 -7.21223 -4.3332 -2.47348 -234035 164142 1.43248e+07 125112 73729.2 66357.1
3 4.15624 -5.8798 -2.4787 70941.3 -82095.3 1.41493e+07 -167527 -24168.9 25646
3 5.41112 -5.18132 -2.47353 -167945 183215 1.43739e+07 7360.51 -4588.9 26001.5
3 7.39147 -3.46486 -2.42256 217482 -233405 1.41203e+07 -8101 35010.6 12827.2
3 8.0669 -2.1585 -2.37812 -127871 110720 1.42008e+07 -181696 47563.7 20519.6
3 -8.25697 -1.86434 -2.55285 114416 -179421 1.41004e+07 -194657 96303.6 49811.4
3 -8.18169 -0.410671 -2.53499 26537 -96866.4 1.41718e+07 242967 28056.3 12141.8
2 2.2089 -0.363967 -2.84394 -410491 611125 -68971.1 784470 657499 -129236
2 3.47884 0.331127 -3.12821 743035 -680604 292387 -367181 -441839 -389998
3 -3.86893 -6.70963 0.685116 -148480 158191 1.42199e+07 -100245 56851.6 -90043.9
3 -1.89441 -7.02049 -0.897073 -99762.5 81325.7 1.42335e+07 -126265 15710.5 -115107
3 -2.45919 -6.96683 0.684266 15808 13747.3 1.42356e+07 189139 30302.7 -171008
3 -0.424325 -6.93468 -0.87415 -57921 72879 1.43932e+07 135626 -26195 -96586.3
3 0.150454 -6.98989 0.63795 6349.27 58603.1 1.43679e+07 -111225 -33035.2 -97834.1
3 2.12665 -6.49589 -0.883572 6097.96 -16592 1.42797e+07 -133954 -46610.9 -21761.5
3 1.57609 -6.66081 0.656839 -39968.3 101394 1.42647e+07 67720.8 -24284.2 13417.2
3 -6.07885 -5.20922 0.655531 215234 -211007 1.41573e+07 94917.4 23416.9 160.533
3 -7.15506 -4.22155 0.686849 -187911 201807 1.42654e+07 129158 56747.1 -3315.17
3 -4.42364 -6.47523 -0.898381 124850 -122893 1.43593e+07 169605 11579.4 -60964.5
3 -5.6436 -5.64764 -0.90687 -219029 199163 1.41894e+07 -1474.88 46433.9 20531.9
3 3.5516 -6.12239 -0.897979 -128523 122343 1.41088e+07 48760.5 -46299.8 32441.7
3 4.06669 -5.93629 0.692321 81567.3 -104460 1.40415e+07 -155174 -33874.8 55642.2
3 5.87724 -4.8697 -0.880306 161979 -196743 1.43279e+07 -95020.7 10555.5 28000.1
3 5.35956 -5.15169 0.711154 -174118 152932 1.43121e+07 17441.3 -7291.44 33326.5
3 -8.12516 -2.40864 -0.91413 -107002 67633.7 1.4106e+07 209815 98009.7 41023.6
3 -7.61496 -3.79706 -0.894488 212606 -236045 1.43621e+07 -61161 66277.2 45948.3
1 -1.61403 -2.90549 0.518248 1.13206e+06 -68532.5 -749878 93366.1 -191465 628574
3 7.03461 -3.88481 -0.878768 -218794 161394 1.41102e+07 -76249.3 42959.9 9663.04
3 7.34353 -3.45736 0.708209 220543 -221333 1.4195e+07 38120.2 -5201.63 -41937.5
3 8.09855 -2.20214 0.685706 -156050 108779 1.41722e+07 -157670 17563.6 -37701.3
3 -8.22851 -1.86335 0.680486 163423 -115902 1.41634e+07 -179265 59193.8 -18720.5
3 -8.27705 -0.435379 0.615391 67731.1 -41112.9 1.40983e+07 233097 39269.1 -4119.49
1 -4.08889 -1.36604 0.539654 294710 910282 -832874 -315362 388370 243950
1 -3.01795 -0.975572 -0.273047 -658996 891734 217938 -691081 199054 108767
1 -1.77563 -1.74669 -0.23823 1.00732e+06 -1.11885e+06 255566 11026.9 -78225 155258
1 -0.720915 -0.789338 -0.30514 -1.14987e+06 733114 -98014.8 468154 146234 34234.5
1 0.485148 -1.102 0.365415 -249500 903019 -708161 280267 -693509 151619
3 8.3153 -1.70028 -0.806551 149329 -170953 1.42061e+07 162010 38477.1 -18803.1
3 8.56303 -0.253528 -0.84545 -22463.3 10737.3 1.42978e+07 -223637 61590.3 -11623
3 -1.85731 -6.992 2.21522 -13976.6 -77196 1.42989e+07 -160325 -36874.8 -174868
3 -0.451088 -7.18715 2.19533 -5081.96 -52230 1.42906e+07 174160 -34418.1 -78773.2
3 2.15956 -6.59431 2.205 72818.2 22204 1.42404e+07 -129907 9551.08 -2148.83
3 3.5314 -6.1067 2.16228 -62040.7 119410 1.40501e+07 40596.2 -14879.2 53193.5
3 -4.45984 -6.52458 2.23925 111127 -133567 1.41109e+07 141547 -4272.87 -126182
3 -5.61912 -5.70638 2.21789 -192152 199072 1.4134e+07 -27285.8 -17685.7 -40565.1
3 5.88248 -4.89936 2.21504 209607 -175992 1.4366e+07 -64944.8 -39079.9 -8359.08
3 -8.01201 -2.39495 2.27694 -116123 122781 1.41579e+07 195237 15968.4 -15445.4
3 -7.41692 -3.75804 2.24058 204974 -196391 1.42197e+07 -101880 36234.3 -40276.6
1 -4.49181 -2.21188 2.68034 225971 -235726 -209888 -221762 -250640 961400
1 -3.86765 -2.48772 1.40067 -92808.4 -513565 781079 604799 102471 -621235
1 -2.74454 -3.30456 1.38621 -1.02276e+06 267579 728553 263800 -297128 -159373
1 -2.18134 -3.83019 2.63493 313484 -295221 -743390 -366938 825309 343624
1 -0.403688 -3.22985 1.25704 -546622 312713 563536 -483707 797027 -75940.6
1 -0.745814 -3.67667 2.5621 -211702 -27813.3 -88308.2 350235 -954579 109195
3 6.98827 -3.88905 2.22951 -183998 189500 1.41938e+07 -39159.6 -13481 -47514.9
1 -4.84485 -0.379588 1.29194 326559 -1.00649e+06 948912 183124 -346532 363275
1 -5.07607 -0.933814 2.60838 -109881 344839 -268973 179867 448930 -846035
1 0.680855 -2.38559 1.09476 161729 -641125 743053 -678503 187637 -400083
1 1.48982 -2.01345 2.28053 420940 152979 -218919 467582 -14152.4 870208
1 1.78062 -0.620112 2.18233 -125229 486009 -208844 -429003 -461824 -815098
3 8.3151 -1.67178 2.20955 133179 -218773 1.40913e+07 164883 31055 -12273.8
3 8.56954 -0.236756 2.26262 -36365.7 -22130.5 1.42057e+07 -231383 39199.5 21879.7
3 -3.87754 -6.70458 3.80975 -170666 -2269.62 1.40563e+07 -241554 24436.7 -46606.4
3 -2.43052 -7.0621 3.77877 103862 -277569 1.43775e+07 188286 16189.9 41509.6
3 0.153105 -7.07508 3.81663 11644.9 -79866.9 1.4231e+07 -110509 14824 66915.2
3 1.61263 -6.92439 3.76045 -57702.3 58936 1.42565e+07 94534.4 14531.7 33145.7
3 -6.03071 -5.2721 3.79599 224253 -256081 1.41705e+07 -17052.5 32673.3 -60155.7
3 4.06445 -5.9364 3.73645 149903 -86285.1 1.40344e+07 -135695 -14858.8 26848.6
3 5.35242 -5.22284 3.81013 -99779.4 162101 1.44341e+07 56102.6 -14671.9 -14606
3 -7.00413 -4.23175 3.80932 -232872 216666 1.41792e+07 36247.5 45992.7 -39844.7
1 -2.82406 -3.52595 3.8705 541475 -526102 -650847 5846.34 516876 -760917
1 -4.01465 -2.72534 3.85615 -515218 367702 -26027.9 -141212 -856540 334496
1 0.0881085 -3.47598 3.70325 413815 -307939 -80735 -180668 -746240 -746793
1 1.1855 -2.54304 3.56678 47827.6 640153 -419062 120318 762324 404029
3 7.35041 -3.49764 3.86925 194620 -255204 1.41639e+07 13440.1 28884.2 -8417.48
3 8.1587 -2.18941 3.82954 -161647 106785 1.40853e+07 -176451 38142.1 -19444.1
3 -8.26076 -1.85911 3.81233 101747 -106510 1.41129e+07 -223506 47703.4 15009.2
3 -8.46328 -0.384989 3.79156 -23899.8 -7026.81 1.40838e+07 244956 35467.9 -4499.59
1 -5.05699 -0.132286 3.76272 -193900 314153 -65284.5 -452270 -435588 -770824
1 1.56722 -0.31518 4.64556 321696 -899235 779954 178852 -318562 389899
1 1.17303 -1.61417 4.70368 -152331 -434266 900633 -699648 -421764 -57594.8
3 -4.45602 -6.49815 5.40904 132392 -151614 1.41107e+07 127127 80081.7 78718
3 -1.88459 -7.18064 5.37586 -72568 48284.7 1.43847e+07 -135203 38443.9 105815
3 -0.480829 -7.22551 5.35556 -71214 63544.3 1.4208e+07 125611 -3225.68 61133.3
3 2.21189 -6.77142 5.34236 64416.6 21183.4 1.43198e+07 -119636 2767.84 54577.9
3 -5.68303 -5.67464 5.35587 -201778 191475 1.42026e+07 -48313.6 48018.6 -32223.1
3 3.50243 -6.08645 5.32996 -56597.3 109193 1.40769e+07 43454.9 11939.6 963.229
3 5.79159 -4.85741 5.42549 190218 -185632 1.43646e+07 -87632.1 30933.1 -5250.8
3 -7.93366 -2.4404 5.35708 -69288.8 103202 1.41042e+07 219190 25967.5 -11771.1
3 -7.44748 -3.7778 5.34771 246088 -202464 1.41202e+07 -58713.3 15515.3 -1059.17
1 -2.80535 -2.22518 5.80776 769351 229517 -627007 -656077 -478435 -497944
1 -2.04939 -3.18165 5.06463 -813861 280189 682091 400441 -219014 326138
1 -0.622385 -3.16389 4.98627 -560929 216233 672156 -470617 383755 521347
3 6.87716 -3.83357 5.47027 -198734 161949 1.41328e+07 -42490.9 45283 -6260.28
1 -4.03173 -1.97698 5.12806 137901 -286678 617086 638767 695776 -236308
1 -4.51295 -0.630992 5.01227 600323 -867851 670906 56566 366463 441987
1 -2.10653 -1.15018 6.46995 398838 -598291 148401 -949459 -114638 -60650.5
1 -0.643745 -1.09736 6.31636 221237 -201636 207644 1.03798e+06 65665.4 -228820
1 0.135558 -2.05952 5.60461 657950 372340 -779465 463408 155147 -546738
3 8.35062 -1.72777 5.40984 130296 -202475 1.4106e+07 154008 40070.2 -19099.2
3 8.55948 -0.253412 5.43828 -37493.2 -10327.9 1.41461e+07 -229633 41796.9 -17722.4
3 -3.90833 -6.70174 6.9871 -167461 176120 1.41066e+07 -96393.4 82814.7 23154.2
3 -4.42021 -6.4302 8.5818 56393.2 -130948 1.40988e+07 213216 43722.3 24755.7
3 -2.51083 -6.94892 6.95325 22049.8 856.026 1.44772e+07 190285 83939.1 49900.6
3 -1.91072 -7.14093 8.52939 -33867.1 93830.2 1.4553e+07 -129817 36616.4 32450
3 0.130932 -7.13365 6.94972 -19062.1 49787.5 1.42642e+07 -122644 -16525.4 34886.9
3 -0.470447 -7.09045 8.50317 -33266.1 73304.5 1.43593e+07 134377 41025.1 11218.9
3 1.57993 -6.93655 6.94965 -56311.5 84240.2 1.43291e+07 69263.7 15346.6 17149.2
3 2.13644 -6.70361 8.54394 21117.5 -11295.4 1.42988e+07 -123624 37342 31127.3
3 -6.14172 -5.38823 6.97103 223720 -230637 1.4226e+07 105340 9560.02 -21953.8
3 -5.66489 -5.70717 8.57308 -267038 198544 1.42519e+07 20419.8 36106 -21767.6
3 3.49113 -6.12133 8.50406 -99453.8 90155.4 1.41967e+07 44922 30854.6 24936
3 4.02361 -5.80899 6.91293 87720.1 -117606 1.41082e+07 -130364 15590.4 11443.5
3 5.39655 -5.30893 6.97742 -164752 158693 1.43405e+07 44944.3 14636.4 -17194
3 5.75808 -4.95847 8.5884 172022 -206290 1.42798e+07 -86903.3 47254.5 19900
3 -8.04229 -2.41348 8.52328 -91528 35064.5 1.41343e+07 225119 13591.4 -53114.1
3 -7.08474 -4.25478 6.94585 -206072 175949 1.41467e+07 142353 8457.09 -38489.7
3 -7.53179 -3.79641 8.52046 222088 -263391 1.42426e+07 -42511.8 29184.7 -55807
3 6.8582 -3.96794 8.59942 -203224 164318 1.4102e+07 -51756.2 70127.3 42650.5
3 7.27902 -3.50921 6.99452 188655 -254398 1.41204e+07 16496.3 75092.7 32737.4
3 8.12901 -2.26778 7.01418 -169724 108942 1.41993e+07 -168132 62614.5 27031
3 -8.21998 -1.90465 6.91786 156994 -149659 1.41349e+07 -183183 8080.09 -20989.8
3 -8.41297 -0.458719 6.94008 67072.2 -67732.3 1.4174e+07 229271 -12584.1 -38765.7
3 8.24747 -1.66086 8.57056 139260 -174608 1.42946e+07 163959 42679.9 -17660.7
3 8.35141 -0.248095 8.56867 -48374.1 -3658.95 1.40735e+07 -231249 17260.8 -28422.9
3 -3.95193 -6.68649 10.122 -183589 162227 1.41227e+07 -88008.5 7815.99 50308.7
3 -2.50094 -7.0331 10.0558 6438.17 -2466.16 1.45197e+07 196656 -19904.5 25974.2
3 0.0908127 -7.09801 10.1059 -24201.3 41122.6 1.43642e+07 -119457 65708.5 -3980.29
3 1.53817 -6.85567 10.0815 -79509.9 87466.4 1.42721e+07 58541 26439.7 29025.7
3 -6.1824 -5.26275 10.1432 203856 -223688 1.42785e+07 105961 59694.3 -44393.9
3 4.01344 -5.96559 10.1054 105074 -108859 1.42259e+07 -145210 3015.88 10230.4
3 5.36596 -5.41446 10.1402 -143655 148727 1.41477e+07 35767.7 22668.2 8803.87
3 -7.29973 -4.32517 10.1211 -210663 160851 1.42117e+07 148121 24388.2 -74764
3 7.2238 -3.50943 10.172 185910 -231168 1.40615e+07 37334.2 51528.1 42688.4
3 7.87283 -2.20724 10.1148 -153941 139563 1.43401e+07 -156607 38513 23465
3 -8.32477 -1.88806 10.1131 149450 -219081 1.41512e+07 -182189 10301.4 -52802.2
3 -8.38292 -0.437167 10.1017 56021.2 -127820 1.41846e+07 235768 1998.85 -53468.3
2 -3.01761 -0.235332 10.5853 -588911 917607 -396580 -200532 718887 176680
2 -0.941287 -1.47771 10.449 697258 -1.03275e+06 143821 -442122 91711 -169525
2 0.398252 -1.07859 10.824 -458802 477405 218408 864655 -213794 374424
3 -4.47694 -6.40266 11.7176 137410 -117182 1.41835e+07 148128 11765.5 2445.57
3 -1.88769 -7.08262 11.6433 -78967 42218.4 1.43859e+07 -150571 8346.98 -910.133
3 -0.453216 -7.04961 11.6694 -71439.5 45476.6 1.42841e+07 150318 49316.7 -29264
3 2.11593 -6.65907 11.6686 4871.2 10679 1.42985e+07 -142425 41510.4 -7629.68
3 -5.74155 -5.73513 11.7084 -184912 234913 1.42981e+07 -30725.6 -6934.11 -31132.3
3 3.46886 -6.12079 11.7065 -110538 97582.9 1.41693e+07 27374.3 -12190.8 -13576.2
3 5.84648 -5.00999 11.7013 186044 -185350 1.40638e+07 -89271.4 51546 16615.2
3 -8.25521 -2.48462 11.6696 -72949.5 21039.2 1.40823e+07 253668 3045.8 -78366.4
3 -7.53176 -3.73815 11.6353 219705 -279866 1.4169e+07 -33894.3 5499.45 -84545.2
2 -2.91785 -2.61202 11.3157 24240.7 147796 269817 662460 -782050 131603
2 -3.07464 -3.42235 12.475 -479674 320972 265079 -468807 789568 -68768.5
2 -1.55245 -2.68496 10.922 872346 -196763 -364558 -506106 564516 562024
2 -0.838911 -3.505 11.8806 -987800 518737 691488 59750.9 -60984.3 -270125
2 -1.77354 -3.87289 12.8889 869785 -375039 -801664 211882 -413087 609771
2 0.429112 -3.03896 12.3104 -76559.1 40926.4 462853 -432334 -375563 -786818
3 6.90789 -4.07032 11.7361 -196107 169228 1.41479e+07 -45116 54528.4 29860.9
2 -4.69351 -1.03791 12.0061 229298 90575.2 56990 -719909 129274 808855
2 -3.67171 -1.41467 11.0837 517607 -661642 500956 524429 -195216 -468488
2 1.00437 -1.84613 11.8099 405675 631714 -798088 378781 -78832.1 623832
2 1.73588 -1.18999 12.8749 103155 -786260 954282 -497113 167196 -68901.3
3 8.10888 -1.68117 11.725 144809 -147218 1.43822e+07 160537 38382.5 -11934.9
3 8.43537 -0.23049 11.681 -45225.3 23845.2 1.40858e+07 -232840 4309.44 -6464
3 -3.94269 -6.73769 13.2345 -111861 74456.3 1.41946e+07 -136881 -11849.5 28683.8
3 -4.50868 -6.45078 14.8219 136968 -210869 1.42288e+07 121137 6887.62 88767.4
3 -2.53154 -7.01507 13.2188 42410.1 -127082 1.42917e+07 147175 -1964.12 49963.2
3 -1.9558 -7.15813 14.792 -35424.9 -104610 1.42495e+07 -186198 42316.5 163442
3 0.126724 -7.18864 13.2741 -12287.9 -110330 1.42629e+07 -83129 50381.2 -9214.5
3 -0.475707 -7.10967 14.8496 -25168.2 -108866 1.42274e+07 178219 22481.8 144180
3 1.5391 -6.75167 13.2708 -65295.5 107769 1.43046e+07 73129.5 76191.8 -12339.4
3 2.03135 -6.59564 14.8544 -19063.4 -7334.15 1.42638e+07 -138609 120807 21045.8
3 -6.21377 -5.29038 13.2576 193461 -232995 1.42155e+07 31422.4 -13333.9 -12617.1
3 -5.82724 -5.75007 14.8499 -224877 202385 1.41733e+07 -64960.7 2740.75 13015.8
3 3.38019 -6.13279 14.8556 -113819 110333 1.42956e+07 23649.9 126202 -46035.4
3 3.98402 -5.91464 13.2815 58685 -90093.8 1.4191e+07 -189108 31845.6 -42809
3 5.32399 -5.27457 13.2992 -193338 130838 1.40284e+07 -7799.65 30137.4 -48962.2
3 5.75512 -4.84921 14.8911 152498 -211304 1.40452e+07 -122695 32526.6 -67251.4
3 -8.08264 -2.43334 14.8446 -115726 73157.5 1.4146e+07 215600 -62945.9 -54920
3 -7.20339 -4.19119 13.2548 -220430 202833 1.4156e+07 88680.1 -21972.9 -33808.8
3 -7.4309 -3.71806 14.7955 227241 -240317 1.41371e+07 -74974.4 -8200.75 -14115.3
2 -4.04656 -2.98057 13.4048 186619 -102898 -152681 25733.6 605677 -774342
2 -3.74242 -3.05305 14.8098 -436194 -376848 628167 493701 -480111 593850
2 -1.47864 -4.01707 14.2518 790163 -388914 -1.02966e+06 -24907.6 -346812 -488758
2 0.712886 -3.11357 13.7616 333271 -225733 288594 -133994 529608 883509
2 -0.133938 -3.7185 14.6992 -643083 330019 365634 81530.2 769736 213818
3 6.85725 -3.93027 14.9035 -219399 140760 1.41352e+07 -72727.4 26773.7 -56203
3 7.2693 -3.54315 13.3143 213456 -213273 1.41588e+07 45814 48710.2 -4626.15
3 7.79862 -2.17174 13.3302 -164955 166220 1.43871e+07 -145382 33940.5 10033.5
3 -8.30666 -1.83597 13.2513 148961 -215446 1.40793e+07 -169650 -35657 -97455.7
3 -8.39431 -0.428001 13.243 59024.5 -126505 1.41278e+07 225755 -70547.5 -70400.7
2 -4.83177 -1.76106 13.2161 252662 402423 -526659 -120132 -572156 722126
2 -5.0463 -1.11355 14.5432 -129097 -715401 963287 551729 313857 -277519
2 1.54778 -1.97912 14.0579 257319 862281 -789198 150023 -419263 -482279
3 8.00837 -1.68666 14.8974 162689 -152841 1.43395e+07 172000 46975 16841
3 8.41741 -0.289571 14.8677 -44400.1 28526.7 1.42328e+07 -215445 -24915.5 112.977
3 -3.98466 -6.51421 16.3896 -114803 150770 1.42549e+07 -95245.7 10008.6 81228
3 -2.56418 -6.96722 16.3756 26964.4 -3083.84 1.42584e+07 180513 19565.2 202440
3 0.0299444 -6.97426 16.4166 -62951.4 64590.4 1.4148e+07 -127343 96712.2 149353
3 1.48965 -6.72438 16.4389 -102525 111746 1.42806e+07 44356.9 139365 -10114.3
3 -6.29552 -5.40751 16.4292 223402 -206124 1.42075e+07 96746.5 -33198.6 7104.41
3 3.89399 -5.80934 16.4562 122389 -100648 1.44016e+07 -148871 88338.6 -65128.3
3 5.28159 -5.22212 16.4959 -156440 152769 1.40543e+07 21597.6 60834.9 -49602.4
3 -7.22726 -4.2687 16.398 -176690 200596 1.42031e+07 117975 -55331 -18901.8
2 -2.49685 -3.53305 15.2128 -1.14831e+06 146184 766231 -236443 -241770 195916
2 -1.68097 -2.93046 16.2947 703538 231927 -579667 388103 653261 -336637
2 -0.259379 -3.06807 16.0052 147843 -47776 240816 -572955 -948940 -303949
3 7.1896 -3.54443 16.471 201255 -267711 1.41316e+07 19670 -4944.24 -51207.4
3 7.68228 -2.1436 16.4491 -174064 99932.7 1.42408e+07 -175333 -10506.4 -58703.3
3 -8.3063 -0.373285 16.4277 80567.1 -120385 1.41274e+07 236366 -91897.7 -39475.4
3 -8.20461 -1.82544 16.4294 156725 -187965 1.41274e+07 -167332 -92205.5 -41167.9
2 -4.32702 -1.92466 15.4683 571767 596302 -1.00406e+06 -359132 -27832 -374670
2 -3.56237 -1.35632 16.576 76757.4 338647 46328.4 -977749 -284647 -414427
2 -2.23454 -1.82037 16.9212 762464 -762037 369394 599703 269028 -11065.8
2 1.41557 -1.34549 15.2643 -89831.7 624299 -195424 599608 419571 -639430
2 0.547103 -1.88061 16.338 584104 -1.05413e+06 607322 -353985 -366554 104070
3 -4.53523 -6.37845 17.9684 87237.8 -127771 1.42751e+07 194240 -28494.1 64377.3
3 -2.01463 -7.03934 18.0046 -121319 87271.3 1.42372e+07 -110439 50966.1 118883
3 -0.544605 -6.87832 18.0192 -107951 84980.7 1.41316e+07 123826 78011.5 117489
3 2.00269 -6.47166 18.0418 8744.11 3311.4 1.42906e+07 -134602 90105.3 -2902.69
3 -5.85002 -5.81446 18.0163 -241345 191998 1.42694e+07 -6464.14 -71577.8 -22945.4
3 3.43894 -6.11515 18.0729 -99646.1 114585 1.44239e+07 55443.6 95485 -41457.2
3 5.74508 -4.96381 18.1261 159423 -193189 1.40832e+07 -107505 52125.6 -63705
3 -8.04576 -2.35868 18.0114 -120949 52247.7 1.4165e+07 221852 -98670.9 -25745.1
3 -7.52149 -3.73031 17.9718 213289 -261211 1.4213e+07 -59935.9 -100783 -13785.4