ITEM: TIMESTEP
40000
ITEM: NUMBER OF ATOMS
2928
ITEM: BOX BOUNDS pp pp pp
-2.3110404288461133e+01 2.3110404288461133e+01
-2.3642266345112198e+01 2.3642266345112198e+01
-1.1760625200000000e+01 1.2209226120000000e+02
ITEM: ATOMS type x y z f_avestress[1] f_avestress[2] f_avestress[3] f_avestress[4] f_avestress[5] f_avestress[6]
3 -4.78614 -7.13773 -10.6049 -303823 214948 1.07642e+07 15968.8 -37734.8 -11969.8
3 -3.60257 -7.95632 -10.6207 65318.1 -142529 1.07687e+07 251201 -36052.8 -6563.53
3 -0.917209 -8.27253 -10.6797 -126833 55795.8 1.07345e+07 -230696 -54215.2 -17515.9
3 0.521359 -8.10613 -10.6688 -212265 160294 1.07454e+07 159697 -37175.8 -30884.4
3 2.9592 -6.96153 -10.6527 126748 -163888 1.08042e+07 -165594 -20678.7 -25989.2
3 -6.6483 -5.14511 -10.6653 229525 -315598 1.0743e+07 -15963.8 -53911.2 4801.87
3 4.11182 -6.12114 -10.6308 -215956 164699 1.08449e+07 -83341.3 -26780.8 -3069.07
3 -7.17613 -3.8096 -10.5954 -109336 14338 1.0758e+07 267759 -43033.6 24927.5
1 -0.872758 -3.15216 -11.5661 904313 -762556 227468 -669086 -298077 -235419
3 5.56992 -3.87754 -10.5647 125103 -164489 1.08752e+07 -15545.2 -59376.4 17401.9
3 6.44931 -2.72271 -10.5387 -52736.2 12990.2 1.08705e+07 -122777 -66003.4 9476.74
3 -7.57325 -1.21271 -10.5919 52593.6 -112079 1.08161e+07 -210947 -24598.7 -1993.08
1 -1.7196 -1.96579 -11.5675 -1.18726e+06 823493 38700.4 52667.2 75201.5 62257.1
1 -0.88655 -0.829492 -11.5366 667487 -1.19246e+06 -388701 463293 -13299.6 -218707
1 0.481073 -1.22095 -11.6729 -560634 342236 245329 -875500 129413 221653
3 6.99828 -0.128433 -10.4827 113690 -154253 1.08561e+07 143849 -48275.6 21243.6
3 -5.30383 -6.80053 -9.15913 173980 -280994 1.07675e+07 153629 -34612.1 -1205.12
3 -4.74664 -7.09819 -7.69239 -270041 250055 1.07452e+07 22029.8 -46392.1 5615.72
3 -3.53233 -7.85976 -7.72537 85636.2 -126514 1.07145e+07 237134 -45687.7 -26719.3
3 -2.96487 -8.19907 -9.28668 -243502 197535 1.07352e+07 -144878 -38193.6 -15215.5
3 -1.52348 -8.25334 -9.27874 -76862.7 36643.1 1.07604e+07 265169 -42446.4 -17332.6
3 -0.927029 -8.30236 -7.73489 -109031 87107.8 1.07226e+07 -224752 -15140.4 -42922.4
3 0.533994 -7.99894 -7.75018 -193895 182729 1.07404e+07 167656 -16282.5 -76841.5
3 1.07994 -7.85742 -9.22638 14623.1 -63861.3 1.07592e+07 -231066 -31279.6 -45974.6
3 2.40219 -7.23395 -9.24226 -266231 215610 1.08123e+07 36824.5 -47613.5 -40692.2
3 2.91576 -6.92625 -7.77026 125482 -150314 1.07825e+07 -158393 -37998.6 -72886.5
3 -6.21773 -5.72248 -9.15349 -256234 164925 1.07267e+07 192053 -38021.9 -5784.78
3 4.46168 -5.62091 -9.1471 142651 -176793 1.08489e+07 -69858.6 -41619.3 -6363.53
3 4.11829 -6.07016 -7.73975 -196126 176903 1.08097e+07 -84051.8 -33218.2 -37894.1
3 5.25807 -4.42116 -9.12189 -110336 85458.2 1.08787e+07 -113959 -50218.4 17376.3
3 -7.25793 -3.22363 -9.15488 156567 -213742 1.07766e+07 -158057 -22988.6 14649.8
2 -2.78882 -2.41337 -7.60104 539188 -327906 272639 608473 -575144 296173
2 -1.47736 -2.97941 -7.89176 192418 193102 -211574 -776123 639775 320069
2 0.950751 -2.40945 -7.77187 309991 -390360 270132 908981 34508.8 533812
2 -0.387691 -2.14529 -8.2047 179403 -440063 -112278 -844698 -144626 -336071
3 5.72998 -3.99627 -7.67347 164659 -139782 1.08639e+07 -15422.6 -34874.1 2257.34
3 6.55962 -2.79099 -7.64263 -18990.6 44658.4 1.08667e+07 -112142 -61476.7 31330.3
3 -7.65246 -1.82226 -9.16128 69104.2 -101608 1.08269e+07 239772 -29174.9 15616
3 -7.68051 -1.20606 -7.75926 67392.5 -45776.7 1.07992e+07 -200333 -49778.2 -7861.83
2 -3.05703 -1.01561 -7.73275 715678 -655233 261814 125483 -228374 -554965
2 -1.88698 -0.1924 -7.98617 -742237 897043 -149450 285537 737708 124231
2 -0.675849 -0.752667 -8.30023 -931358 526318 -344262 619521 -307415 220175
2 0.502188 -0.0972694 -7.82064 817003 -1.08842e+06 313157 -49165.6 248158 -320262
3 6.73229 -2.22721 -9.08442 127220 -177528 1.08641e+07 44648.1 -65515.2 9696.37
3 6.99758 -0.795655 -9.07997 -31177.6 -24876.1 1.08743e+07 -142616 -45051 9905.93
3 7.15616 -0.217161 -7.65176 118742 -161642 1.08364e+07 151617 -53534.7 8588.6
3 -5.18043 -6.55438 -6.1393 230794 -229811 1.07273e+07 115747 -63080.1 -42243.7
3 -2.94813 -8.09183 -6.33351 -186837 151788 1.06905e+07 -172606 -55393.6 -61800.2
3 -1.47944 -8.2961 -6.28251 -16726.8 -2215.23 1.06881e+07 252543 -22188.7 -90387.6
3 1.12014 -7.8555 -6.25899 122768 -155173 1.07376e+07 -196817 -39362.1 -116900
3 2.4008 -7.22893 -6.24859 -222324 134987 1.08062e+07 128616 -5981.17 -82241.2
3 -6.56468 -5.16073 -7.73757 247117 -279031 1.06913e+07 -22977.8 -38880.5 -17401.5
3 -6.17382 -5.5624 -6.20897 -228855 191164 1.06906e+07 129039 -66971.3 -18670.1
2 -2.38722 -4.22443 -6.13226 1.05921e+06 -334213 -338771 -212011 -97672.8 699598
2 0.0722123 -4.36319 -6.4678 -96616.1 435914 -83998.7 -16429.5 -822010 -537342
3 4.61091 -5.72189 -6.27134 107333 -212703 1.07969e+07 -17204.7 2464.07 -58121.2
3 5.34694 -4.49388 -6.22792 -147425 84987.2 1.08241e+07 -95987.4 -50893.2 -2790.74
3 -7.0759 -3.80061 -7.77958 -82608.5 38067.1 1.07148e+07 259274 -33082 -6415.49
3 -7.32194 -3.22294 -6.2369 103061 -165390 1.07078e+07 -192492 -51082.9 -44413.3
2 -4.10856 -2.5763 -5.50829 134850 262956 -171276 27863.3 375826 -970210
2 -3.3653 -3.20767 -6.53194 -744203 775497 392030 -52869.5 557987 -404906
2 -1.23677 -4.06901 -6.9607 -527151 330995 591301 680911 -395348 -199606
2 1.21853 -3.47395 -6.95236 742820 148678 -636429 327213 332486 865654
2 1.98308 -3.18268 -5.69839 -462521 -512808 866171 -608093 -52453.4 -263682
3 -7.71999 -1.86805 -6.27137 -52403.8 -43637 1.07725e+07 222086 -66444.8 -12607
2 -3.87002 -0.410272 -6.73824 -457193 484779 244829 -644234 381739 647846
2 -4.274 -1.18797 -5.57061 79083.9 264861 -451932 -71006.9 -129836 933116
2 1.51871 -1.11313 -7.48188 -539333 981475 -52017.2 -498460 -531115 -149674
2 2.24956 -0.823781 -6.3069 379271 1.02029e+06 -1.01991e+06 -263432 -73260.8 -33092.5
3 6.74587 -2.23321 -6.20674 168631 -105943 1.0856e+07 64552.2 -47060.9 19596
3 7.17609 -0.840562 -6.21066 3490.7 38586.9 1.08267e+07 -116354 -39248.9 20925.6
3 -4.68791 -6.93414 -4.79527 -267060 221651 1.07054e+07 -45156.8 -74563.7 -53223.4
3 -3.51626 -7.73126 -4.78191 121299 -208755 1.06918e+07 176991 -58121 -31522.3
3 -0.931217 -8.22322 -4.89429 -20431.7 -84674 1.07309e+07 -250138 -69150.3 -43963.8
3 0.496808 -8.04062 -4.85287 -131748 -15368.6 1.07888e+07 241117 -53448.6 -6941.44
3 2.96898 -6.93163 -4.8786 125408 -310302 1.07898e+07 -42037.3 -84887.3 64664.1
3 -6.53391 -5.03318 -4.74223 182723 -252805 1.07033e+07 -111880 -38371.4 -31496.9
2 -2.20225 -4.54836 -4.78542 682509 52786.9 -908320 -204821 -373380 -194140
2 0.230678 -4.62576 -5.04356 -371505 -679103 320494 -410162 669404 510684
2 -0.910451 -4.74828 -4.23538 -795482 -132725 480774 345968 861279 -46816.6
3 4.10836 -6.11699 -4.87607 -316534 107776 1.07982e+07 83114.2 -85935 47254
3 -7.1921 -3.7744 -4.82367 -153207 115137 1.07027e+07 211413 -32093.6 -31913.9
2 -4.07812 -2.9121 -4.09666 -87345.9 -840751 943784 361736 -226139 599891
2 -3.05004 -3.88048 -3.73147 -1.03884e+06 130234 1.00027e+06 292957 -237254 270568
2 1.36542 -3.9284 -4.56035 209490 263520 -1.18161e+06 435626 -423270 -128131
3 5.69781 -3.99414 -4.73512 116120 -141143 1.082e+07 -5021.55 -69516.5 27615.1
3 6.53855 -2.79549 -4.72847 -24469.4 42212.4 1.08447e+07 -114948 -34098.8 -8650.29
3 -7.6538 -1.17594 -4.78046 -178670 9551.79 1.07667e+07 -200661 44382.6 -12752
2 -4.14466 -1.74672 -3.2609 212106 856636 -1.08864e+06 -175169 -112444 864.234
2 -4.26608 -0.664504 -4.21881 -229870 -1.09028e+06 745415 274865 107415 -571150
2 2.55338 -1.87864 -5.42749 233044 -871620 945832 195779 134388 -584330
2 2.66591 -1.36225 -4.10266 381789 407297 -221448 -67589.5 -234758 854921
2 2.32804 -0.00293133 -4.16521 216403 400945 -347920 1859.5 414998 -939810
3 7.22795 -0.199177 -4.71709 135532 -122916 1.08361e+07 158315 -6144.61 17772.7
3 -5.30394 -6.63505 -3.37937 229449 -227974 1.07064e+07 90239.9 -50657.7 -41053.5
3 -4.77841 -6.9948 -1.92845 -264861 248728 1.06945e+07 7539.54 -51542.3 -86254
3 -3.50115 -7.59831 -1.9157 107410 -121691 1.07737e+07 222399 -47941.6 -61862.6
3 -2.96102 -7.92597 -3.34666 -177690 191864 1.0696e+07 -152888 -58551.9 -25209.5
3 -1.51759 -8.18086 -3.32512 -15551.9 24177.9 1.07498e+07 243224 -80942 11041.1
3 -0.937346 -8.17269 -1.90049 -84432.6 63163.7 1.07807e+07 -242481 -90075.9 -33285.9
3 0.499428 -7.92719 -1.86566 -183328 185276 1.07628e+07 171602 -82073 13312.3
3 1.12478 -7.75515 -3.35827 99531.8 -70939.6 1.07643e+07 -188298 -70254.8 48951.6
3 2.49108 -7.28411 -3.40111 -184175 212095 1.07573e+07 55897.4 -105994 98782.8
3 2.97742 -6.91835 -1.89607 158352 -130801 1.07837e+07 -136463 -77125.7 41205.9
3 -6.61215 -5.06129 -1.82793 249809 -229411 1.07136e+07 -42245 -62091.7 -66067.6
3 -6.22964 -5.55459 -3.30403 -212382 212208 1.07125e+07 126138 -19813.4 -32022.4
2 -0.897782 -4.28083 -2.86328 -16436.6 330205 17215.4 -250573 -948082 25793.7
3 4.52645 -5.68167 -3.44824 132480 -137433 1.07914e+07 -19344.5 -125130 102788
3 4.1184 -6.04679 -1.91011 -169160 192961 1.0828e+07 -52989.9 -101464 57705.5
3 5.37951 -4.51697 -3.37326 -84940.7 130703 1.08311e+07 -95967.9 -52378 25290.7
3 -7.31157 -3.85123 -1.89161 -80613.6 110181 1.07766e+07 238522 -42054.5 -18272.7
3 -7.4138 -3.2375 -3.34963 126892 -115005 1.07333e+07 -182963 -1340.28 -31591.8
2 -2.20035 -3.70361 -2.57731 800695 134451 -430716 159229 752300 -445864
2 -2.33108 -2.51208 -1.87419 951054 -912448 394986 -7338.54 310004 -231971
2 0.246974 -3.58469 -2.38409 343901 -523612 602230 -710235 -382974 49061.2
2 0.105667 -2.35468 -1.62447 -427606 886907 -103557 254318 641436 95589
2 1.47646 -3.4742 -3.22739 426148 160090 -524669 741373 286248 -755509
2 2.03948 -2.15343 -3.00034 -369626 321167 340942 -576549 271822 421713
3 5.82514 -4.04232 -1.85332 148043 -123464 1.08552e+07 -16641 -11913.5 31833.9
3 6.59483 -2.78562 -1.88964 -43778.5 60563.7 1.08638e+07 -104613 32791.9 27035.1
3 -7.65353 -1.83621 -3.3605 23988.1 -8841.64 1.07553e+07 213117 98855.8 -20595.9
3 -7.60415 -1.15065 -1.83511 58396.4 -86762.2 1.07558e+07 -193318 32366.2 20468.5
2 -3.37605 -1.54009 -2.09043 -475782 1.04674e+06 -133638 -499466 -567235 -169245
2 -1.1931 -1.80173 -1.40259 -608052 748635 194899 557243 -299972 334979
2 -2.81761 -0.200069 -1.89074 259801 -227458 353909 806498 33946.1 377628
2 -1.45705 -0.405037 -1.47727 115021 -261089 168278 -985316 -111532 -451624
2 0.900117 -0.0824373 -2.114 247340 -737035 -239074 660407 -522378 304866
2 1.139 -1.49072 -1.96177 780708 -1.00258e+06 223383 272303 -283303 -633895
3 6.69902 -2.18936 -3.32634 168705 -145003 1.08146e+07 47861.4 16635.3 4621.19
3 7.09634 -0.814949 -3.31921 -14974.2 -1022.68 1.08336e+07 -125706 30534.8 1210.98
3 7.23349 -0.227277 -1.888 126740 -153538 1.0826e+07 152873 30028.7 -3435.03
3 -5.32627 -6.61305 -0.379818 188428 -269319 1.07118e+07 120887 -55590.5 -79627.1
3 -2.98089 -7.84819 -0.479109 -176940 168323 1.08066e+07 -167208 -89948.1 -61848.6
3 -1.58468 -8.17346 -0.456325 -16713.2 16520.7 1.08296e+07 250148 -58746.9 -44555.9
3 1.07639 -7.7683 -0.442461 34413.4 -88087.8 1.08059e+07 -211578 -83172.8 11912.2
3 2.45009 -7.27996 -0.397369 -253856 215684 1.07973e+07 43261.1 -90070.3 39925.4
3 -6.28662 -5.51399 -0.412478 -254351 175545 1.07204e+07 153892 -79060.4 -68792.5
3 4.42944 -5.59599 -0.442662 129545 -151213 1.08265e+07 -74868.8 -75548.2 65837.4
3 5.3031 -4.44557 -0.449608 -114790 105787 1.08542e+07 -117536 -12783.1 47786.7
3 -7.51968 -3.27343 -0.37199 145748 -200519 1.07674e+07 -173110 -60943.8 6051.38
3 -7.66702 -1.79421 -0.430117 44444 -110609 1.07997e+07 226730 6276.68 33259.2
3 6.65739 -2.21406 -0.419416 127263 -152553 1.08683e+07 44044 27345.8 29045.3
3 7.03131 -0.7971 -0.381174 -16936.6 6814.89 1.08573e+07 -146833 33913.7 -4069.64
3 -5.2915 -6.61696 2.47031 224836 -237959 1.0749e+07 66928 -77740.2 -36505.9
3 -4.85252 -6.95129 1.02338 -266361 222941 1.07762e+07 -31901.9 -104831 -40196.3
3 -3.56373 -7.65885 0.987918 112749 -169622 1.07843e+07 204325 -105066 -43314.6
3 -2.93862 -7.79699 2.49159 -217491 149464 1.07719e+07 -166733 -104101 -41700.6
3 -1.57845 -8.16924 2.44829 -46315.9 -17147.3 1.07959e+07 262875 -88863.1 -12644.7
3 -0.961671 -8.18552 1.01083 -46022 21679.8 1.08162e+07 -232516 -68892 -37294.2
3 0.457085 -7.88639 1.06795 -160482 123214 1.08144e+07 182275 -74963.2 8719.73
3 0.999291 -7.73798 2.43749 49113.2 -101121 1.07743e+07 -198102 -51599.5 41084.4
3 2.33639 -7.27175 2.52246 -237968 208353 1.0794e+07 71820.4 -77355.7 39974.2
3 2.95392 -6.98122 0.980948 103660 -170150 1.08198e+07 -136743 -83146.6 36796
3 -6.67718 -5.05417 1.07391 200245 -303503 1.07259e+07 -46790.5 -69198.4 -60553.1
3 -6.35031 -5.62115 2.51226 -234614 221546 1.07417e+07 103442 -67025 -8685.17
3 4.05387 -6.04204 1.02805 -222232 166928 1.08278e+07 -63736.3 -75536.6 78000.7
3 4.44184 -5.56042 2.48747 106112 -123626 1.0803e+07 -74526.6 -72220.4 62435
3 5.22803 -4.40872 2.47985 -116217 116331 1.08396e+07 -128447 -29820.7 42054.5
3 -7.29644 -3.76338 1.07547 -127644 37977.9 1.07485e+07 251243 -55753.3 -24802.5
3 -7.42926 -3.16503 2.56454 120988 -190696 1.07277e+07 -181292 -38930.1 -23585.2
3 5.59513 -3.93762 1.0196 123404 -123644 1.0849e+07 -17178.1 -26566.5 61345.5
3 6.4132 -2.77019 1.0105 -58908.1 67499.7 1.08767e+07 -128504 37664.3 34159.1
3 6.64309 -2.15252 2.54293 137227 -131826 1.08629e+07 45319.8 59715.5 -3121.53
3 -7.69209 -1.78902 2.55212 29883.1 -107458 1.07437e+07 231410 -8237.74 -4458.77
3 -7.65803 -1.19268 1.06429 20360.3 -87165.2 1.07871e+07 -188305 -751.271 26112.1
1 -1.15015 -1.38891 2.77285 -192207 567696 -127869 169559 663668 -670136
1 -1.81016 -0.187334 2.50017 568505 96900.4 -236549 -363718 -153752 848650
1 0.16314 -1.59876 2.30724 -1.00206e+06 582994 346807 -376999 170069 -238662
1 0.78866 -0.60971 1.52044 342808 -570269 -546206 750955 -521256 381221
1 2.46195 -1.57459 2.84052 -502363 733603 209278 590042 -705103 -178615
1 2.16562 -0.578076 1.84737 -118634 -19772.2 343828 -881066 436621 28356.8
3 7.22064 -0.852542 2.48095 -86030.8 18664.1 1.07577e+07 -132311 118876 -5502.62
3 7.19563 -0.240401 1.07178 146449 -144273 1.08001e+07 129648 58628.6 -1457
3 -4.80015 -7.01982 4.04806 -272323 234858 1.07431e+07 -36096.5 -73788.1 -35270.2
3 -3.47846 -7.64825 3.98807 120297 -171111 1.08398e+07 195244 -49614 -37216
3 -0.933383 -8.29611 3.996 -88719.6 9618.53 1.07778e+07 -235872 -55016.5 13755.2
3 0.443297 -7.99084 3.9772 -196306 125398 1.07634e+07 178128 -50716 40512
3 2.87287 -6.88429 3.98585 111976 -133635 1.07687e+07 -125113 -41904.4 56365.4
3 -6.65181 -5.10969 3.96074 217162 -234934 1.07525e+07 -86368.1 -74161.9 449.275
3 3.97609 -5.94464 3.98588 -202535 189021 1.08238e+07 -59915.6 -45581.5 40893.2
3 -7.31502 -3.79694 3.96005 -113472 90981.1 1.07456e+07 223267 -52984.4 2485.81
1 0.83795 -2.54942 4.43072 1.0475e+06 245336 -1.00328e+06 -39654.2 376914 -79468.4
1 -0.512924 -2.30018 4.91386 -407937 307957 422667 -44658.8 -872687 113912
1 1.17362 -2.22582 3.10451 1.09036e+06 -561902 -213673 -161961 245361 651691
3 5.62094 -3.88644 3.96271 128456 -110876 1.08404e+07 -6511.01 -33467.9 14034.3
3 6.36542 -2.67037 3.97586 -110133 74114.3 1.08453e+07 -88693.2 36459.8 -42.6096
3 -7.73383 -1.23274 3.99087 14988.5 -76202.6 1.07182e+07 -181972 -10906.9 -4819.16
1 -1.49606 -1.80502 4.11333 343383 -616357 594965 285207 -474090 521636
1 -2.32148 -0.765622 4.69884 368044 881642 -867874 -401795 384891 78357
1 3.40285 -1.40563 3.84916 187246 576439 -589700 134507 -587304 -711407
1 4.18871 -0.174075 3.84697 46207.8 -31950.8 -199023 -6047.39 402567 921462
3 7.26615 -0.25714 3.98825 -56289.1 -115544 1.07728e+07 201381 51339.2 -20907.2
3 -5.32667 -6.6338 5.41473 198940 -266435 1.07785e+07 92195.5 -68570.3 -29805.7
3 -4.80277 -7.04952 6.8566 -276141 215343 1.08213e+07 -27459.4 -80049 -11875.4
3 -3.55286 -7.72465 6.92446 129410 -183254 1.08533e+07 219426 -67240.2 -6534.82
3 -2.91577 -7.91496 5.45424 -192182 154679 1.08853e+07 -178355 -66572.7 -29863.2
3 -1.53744 -8.31421 5.43665 -43276.4 -10494 1.07611e+07 246891 -62134.1 -5447.97
3 -0.917939 -8.3408 6.86894 -76182.5 5468.64 1.07511e+07 -247267 -47614.5 13758
3 0.510313 -8.04119 6.87805 -192348 117726 1.07586e+07 181042 -35563.5 23049.9
3 1.15265 -7.92022 5.41585 39700.8 -109648 1.07639e+07 -182715 -31487.4 31265.9
3 2.35872 -7.18708 5.4119 -246190 211333 1.07703e+07 65267.6 -34050.1 39240.3
3 2.86278 -6.90159 6.92042 129078 -141255 1.08154e+07 -105589 -45949.1 17300.7
3 -6.61959 -5.1029 6.90827 211431 -277420 1.07869e+07 -74185.5 -67891.1 -23741.5
3 -6.33452 -5.64902 5.45134 -258094 184415 1.07682e+07 130609 -77542.7 -17815
3 4.41874 -5.53618 5.42494 122285 -96114.8 1.08228e+07 -48312.7 -28647.7 -3123.2
3 3.95186 -5.94274 6.90663 -190339 188325 1.08327e+07 -35877.1 -15692.6 -13682.2
3 5.27621 -4.35779 5.42846 -100967 146751 1.08036e+07 -95223.1 -33377.1 -4800.75
3 -7.43585 -3.19406 5.43534 104754 -158583 1.07585e+07 -172166 -63948.9 4431.4
3 -7.22189 -3.81632 6.89146 -126463 58443.4 1.07385e+07 245517 -66934.6 16843.9
1 -0.365981 -2.03663 6.3651 -27574.2 197811 39723.6 205785 1.00798e+06 -164847
1 1.06305 -2.00494 6.68152 742808 208111 -703534 -206509 -750576 -164705
1 1.80509 -2.34529 5.47098 -986866 311745 941145 -9548.87 246253 91974.1
3 5.58149 -3.78605 6.84479 147363 -91847.6 1.08283e+07 -16606.4 -7173.29 -23354.9
3 6.44435 -2.62319 6.89251 -46951 89412.5 1.08349e+07 -112919 -46004.4 -18922
3 -7.67521 -1.80073 5.42206 37310.9 -69182.7 1.07246e+07 225985 -30556.7 24212.5
3 -7.70811 -1.23523 6.96137 16159.9 -42467.4 1.07809e+07 -174655 -53319.4 14607.8
1 -1.27368 -1.04755 6.95352 510894 -864656 532451 344371 440453 -278582
1 -2.22365 -0.456682 6.06441 110408 767524 -552618 -558648 -502320 -344191
1 3.03437 -1.79415 5.21629 -226108 -569426 1.04494e+06 -587557 218088 270279
1 3.51996 -0.768674 6.10611 281138 758641 -1.01007e+06 324103 242229 265567
3 6.69424 -2.13794 5.44328 103596 -124060 1.08481e+07 111767 -30475.4 7794.15
3 7.20866 -0.830338 5.44629 -174379 62137.2 1.07724e+07 -96377 -96786.5 13562.7
3 7.32705 -0.230755 6.93547 161093 -130785 1.0794e+07 125905 -74922.7 6366.91
3 -5.33316 -6.70285 8.32422 202078 -256768 1.08196e+07 72598 -58213.1 5464.29
3 -2.99666 -8.04059 8.36663 -205992 151628 1.08301e+07 -183711 -35936.8 16522.4
3 -1.59057 -8.24779 8.40711 -25779.7 -16139.7 1.0774e+07 244669 -34415.9 14829.1
3 1.08015 -7.9321 8.31619 72035.7 -103055 1.07537e+07 -176586 -57826.3 35443.6
3 2.35633 -7.304 8.38911 -228691 195310 1.07933e+07 78557 -61768.9 12622.4
3 -6.32791 -5.68668 8.31468 -252941 196898 1.07785e+07 116520 -64535.8 -5018.71
3 4.39157 -5.44492 8.33905 125990 -132220 1.08502e+07 -36413.1 -8816.08 -4547.41
3 5.34306 -4.36559 8.31334 -127473 131649 1.08771e+07 -90365.9 -6461.96 -8742.3
3 -7.49576 -3.28273 8.36047 107069 -172183 1.07762e+07 -184198 -55934.4 2291.47
3 6.68353 -2.12557 8.31059 153354 -161181 1.08767e+07 30636.7 -30208.8 -22960.8
3 -7.74076 -1.87816 8.40922 21244.7 -88222.5 1.07666e+07 226515 -57591.6 9680.54
1 0.677539 -0.0548751 8.10298 -985801 695019 142640 -283132 259925 211215
1 -0.682338 -0.0271617 7.78137 -524961 800018 -106658 135035 -637511 404257
1 2.81644 -0.439047 7.30372 -225054 791151 -88885.9 755429 625752 -125855
1 1.54669 -1.02721 7.57961 878753 -805507 211968 -368738 -384277 -401986
3 7.17412 -0.759741 8.34363 -13317 13557 1.08436e+07 -174811 -27402 -14365.5
3 -5.40846 -6.74041 11.3293 195211 -266743 1.07867e+07 94171.1 -46001.6 15098.9
3 -4.87501 -7.12524 9.81271 -281445 212535 1.08293e+07 -37896.5 -48610.4 456.867
3 -3.59875 -7.82018 9.807 108891 -177394 1.08408e+07 210450 -37215 16833
3 -0.985361 -8.25465 9.79576 -22246.9 3602.11 1.08088e+07 -226074 -39989.1 13431.8
3 0.453261 -8.05782 9.83349 -139945 115711 1.07398e+07 193099 -48022.1 17590.5
3 2.84784 -6.84561 9.79432 122004 -151450 1.08063e+07 -96832.6 -73415.8 13583
3 -6.66172 -5.14344 9.84942 199149 -272314 1.0782e+07 -81792.2 -46387.5 9190.67
3 -6.28354 -5.62045 11.294 -265597 182012 1.07859e+07 135076 -38469.8 1666.62
3 3.94191 -5.89011 9.75461 -186724 183220 1.08445e+07 -32132.6 -38607.5 9601.3
3 4.32856 -5.4898 11.2061 104605 -119007 1.08278e+07 -33490.3 -30713.4 10403.4
3 5.24669 -4.38208 11.197 -124345 129317 1.08545e+07 -94194.3 -29644.5 11964.6
3 -7.28693 -3.87157 9.80064 -134429 80033.1 1.07523e+07 231429 -55785.4 11683.8
3 -7.4973 -3.31693 11.3094 112776 -156918 1.07788e+07 -176147 -39550.8 3414.23
3 5.62268 -3.90215 9.7416 128230 -128531 1.08806e+07 -11470.6 -37360.7 11480.5
3 6.38792 -2.69884 9.71399 -73614.5 65214.1 1.08821e+07 -120699 -37937.8 -11915.3
3 6.65205 -2.11128 11.1269 153365 -172794 1.08429e+07 12450.9 -29985.8 9558.16
3 -7.81193 -1.25351 9.88734 -3656.33 -71605.3 1.08082e+07 -189940 -52349.2 3371.93
3 -7.76649 -1.91465 11.337 21745 -76882 1.07913e+07 221775 -51973.9 11994.6
3 7.30828 -0.216938 9.70746 149508 -207105 1.08589e+07 125069 -17044.8 16253.8
3 7.12727 -0.781534 11.1684 -14113.1 -13595.4 1.08594e+07 -175704 15490.8 8463.99
3 -4.86805 -7.12295 12.7634 -273697 223085 1.08081e+07 -42806.2 -50755.7 29801.3
3 -3.01204 -7.97705 11.2371 -196548 158806 1.08348e+07 -184389 -26921.4 27011.6
3 -3.6106 -7.8896 12.7621 112394 -180792 1.08159e+07 213734 -31256.7 49457.2
3 -1.58963 -8.19753 11.2438 -32269.9 -17700.8 1.07869e+07 245723 -67506.2 11221.8
3 -0.988312 -8.19406 12.7044 -77632.8 7397.88 1.07841e+07 -228362 -59159 18414.1
3 0.463598 -7.99957 12.6965 -187452 138706 1.07636e+07 188723 -56686.2 -18795.1
3 1.0322 -7.82596 11.2854 105596 -87695.6 1.07635e+07 -163422 -63069.4 -6769.53
3 2.34307 -7.22015 11.27 -182922 196134 1.07825e+07 95686.9 -66415.1 2750.52
3 2.79819 -6.81565 12.6422 127170 -142855 1.07823e+07 -114599 -29524.7 -5341.67
3 -6.63298 -5.17434 12.6911 210519 -276105 1.07727e+07 -68523 -28662.8 14770.5
3 3.86125 -5.84106 12.6665 -189366 193195 1.08081e+07 -40062.3 -17896.5 -11947
3 -7.3805 -3.9236 12.6767 -128912 54541 1.07667e+07 231731 -60218.2 -6284.42
3 5.52925 -3.86331 12.6635 127421 -109493 1.08404e+07 -27022.5 -24843.5 15173.6
3 6.44331 -2.77452 12.6158 -68173.9 66768.3 1.08021e+07 -126410 -6217.96 494.741
3 -7.78769 -1.29972 12.7135 16986.5 -28954.7 1.08365e+07 -171781 -79310.6 -41341.4
2 -0.798794 -1.13076 12.2542 597505 -163433 -251479 -678872 248971 588308
2 0.651593 -1.50232 12.1737 12834.2 -203181 387629 771075 -303153 -29772.4
2 1.32224 -2.09433 13.2438 115794 505935 -257772 200382 -860420 -241852
2 1.33964 -0.482806 11.3989 -599178 510843 -83529 -627955 550634 107263
2 3.37025 -0.65991 12.7039 589199 -828365 374798 428307 191048 271445
3 7.38714 -0.229776 12.6313 90375.4 -126151 1.08326e+07 165723 58346.9 -21559
3 -5.36386 -6.74957 14.2355 222547 -252281 1.08093e+07 70842.5 -28805.1 57450.1
3 -3.01637 -7.93275 14.1636 -176233 147814 1.08365e+07 -175574 -23836.6 66052.5
3 -1.56231 -8.06349 14.1534 -20376.8 -14521.5 1.08115e+07 242662 -29743.7 11530.2
3 1.05773 -7.93744 14.1172 28055.8 -121028 1.07511e+07 -206340 -12816.4 -18456.5
3 2.29179 -7.21792 14.1217 -256515 199213 1.08009e+07 53715 -24346 -16836.5
3 -6.30648 -5.69477 14.2311 -249395 216927 1.07962e+07 103616 -53349.4 35583.8
3 4.23693 -5.46098 14.1446 110837 -116833 1.08314e+07 -67011.2 -14937.9 -26389.5
3 5.2086 -4.35099 14.1327 -117869 131934 1.08316e+07 -118236 -31511.1 -5613.95
3 -7.59286 -3.37371 14.1589 120320 -157471 1.07975e+07 -179310 -56523.8 -19578.3
3 6.69102 -2.15431 14.1426 109825 -143058 1.08277e+07 98410.9 -31211.5 -23536.8
3 -7.88536 -1.96529 14.2186 14754.5 -56289 1.08214e+07 225786 -80069.7 -59294.2
2 -2.2655 -0.216927 14.0417 -513714 34692.9 697666 436769 -291975 318480
2 -1.40173 -1.26614 13.5256 777075 450512 -1.0878e+06 -331123 -200893 30305.9
2 0.590967 -2.20844 14.5068 -381935 -19514.8 740349 -534652 550656 143803
2 -0.779366 -1.93353 14.6385 -308649 -7921.48 561082 388975 631664 -236118
2 2.75795 -1.56564 13.5693 560295 -39441.8 -196206 -28458.1 619566 601730
2 2.84772 -1.48985 15.0007 -771118 85874.3 670431 -465372 -468699 -412234
3 7.19349 -0.798593 14.0948 -205046 51045.2 1.08081e+07 -76176.9 -15377.6 -15813.5
3 -5.39392 -6.76366 17.1219 217230 -256450 1.08066e+07 76814.5 -13777.9 39824.1
3 -4.81889 -7.01019 15.6228 -276010 219867 1.08038e+07 -36509.8 -15803.9 71563
3 -3.59669 -7.75299 15.6225 117159 -155457 1.08526e+07 210732 -22669.5 68768.6
3 -2.96628 -7.89833 17.1363 -238897 141265 1.08479e+07 -162713 7663.2 51024.7
3 -1.55439 -8.049 17.1211 -78563.9 -13563.4 1.07921e+07 252365 5344.07 43734.5
3 -0.955136 -8.20543 15.6837 -99541.2 30904.8 1.07779e+07 -236921 7702.74 10054.9
3 0.514938 -8.09058 15.6886 -213135 136857 1.08202e+07 189317 27773.5 -14772.9
3 1.05254 -7.96575 17.1326 46600.3 -116314 1.08377e+07 -192777 -2039.37 -27579.8
3 2.36854 -7.32928 17.136 -245439 179763 1.08455e+07 55961.9 -2825.65 -34941.4
3 2.81034 -6.90059 15.6319 112604 -143201 1.08369e+07 -121507 -14171.8 -35991.5
3 -6.71293 -5.18407 15.7315 219040 -259308 1.08066e+07 -71394.7 -42431.7 44572.8
3 -6.4067 -5.73255 17.1848 -237593 198575 1.08015e+07 122100 -15251.1 50623.5
3 3.90413 -5.94377 15.5921 -208086 191269 1.0844e+07 -48175.1 -11070.6 -31317
3 4.26361 -5.41063 17.0827 147361 -111043 1.08687e+07 -49804.2 -23575.1 -73483.4
3 5.25827 -4.3704 17.0647 -101505 145810 1.08506e+07 -92588 -50411 -62975.5
3 -7.46107 -3.96217 15.7074 -122620 87316.9 1.08379e+07 229188 -68530.9 14319.1
3 -7.56042 -3.36078 17.1721 113801 -142914 1.08566e+07 -182830 -54042 8160.47
3 5.63139 -3.89267 15.6359 137245 -86004.7 1.08656e+07 -714.029 -55553.4 -25753.5
3 6.54056 -2.76026 15.6002 -60766.2 90484.9 1.08182e+07 -92068 -99224.2 844.533
3 -7.80511 -1.98904 17.1926 23483.1 -33178.8 1.08486e+07 229665 -111074 -92.6626
3 -7.83662 -1.36547 15.7046 18406.9 -49747.1 1.08188e+07 -173149 -116131 -47327.2
2 -2.11137 -0.0658128 15.4603 667198 132301 -560265 -103082 535918 -627616
2 -1.1032 -1.15536 15.87 99692.1 441280 -173233 -147874 -874321 343074
2 -0.210071 -0.823313 16.8927 -127040 -143287 340941 -778880 -484311 -144950
2 1.56971 -1.81918 15.5501 798509 408039 -919278 336553 -66689 239884
2 1.17758 -1.13039 16.6907 829695 56059.6 -463456 627067 364293 -503905
2 2.06262 -0.253804 17.4483 -886505 719084 450060 -295648 393149 576501
2 3.73134 -0.571542 15.6119 -32287.7 -836451 519414 -64687.1 -105153 -691230
3 6.77526 -2.18236 17.0271 164584 -99343.9 1.08948e+07 57134.3 -93985.7 -31402.7
3 7.28694 -0.819473 17.0512 -17390.9 65909.3 1.08289e+07 -140810 -119031 -28510.9
3 7.45298 -0.218108 15.6045 7209.22 -107308 1.08146e+07 169453 -148881 6515.48
3 -4.89124 -7.1441 18.5787 -276086 244999 1.08037e+07 -24202.4 -5690.36 47936.1
3 -3.55817 -7.74806 18.5914 100584 -164615 1.08467e+07 208920 1621.83 68815.1
3 -0.974654 -8.06541 18.5969 -110468 27445.2 1.08152e+07 -235650 -13138.5 45575.4
3 0.502925 -8.00819 18.5991 -226910 135867 1.07721e+07 176151 -31466.8 -19008.9
3 2.93539 -6.95605 18.5767 114608 -151849 1.08765e+07 -133252 -32644.4 -60529.7
3 -6.83261 -5.27896 18.6766 212487 -254919 1.0819e+07 -52147.9 -8386.37 47987
3 4.01194 -5.94732 18.5176 -209344 168211 1.08659e+07 -54282.5 -24380.6 -80449.4
3 -7.47135 -3.99109 18.643 -124280 80922.3 1.09108e+07 231483 -44640.9 21416.5
3 5.70713 -3.91881 18.4716 123641 -124198 1.08604e+07 -18953.4 -35301.1 -77971
3 6.56585 -2.75581 18.396 -51463.1 57287.9 1.08999e+07 -125053 -101980 -56563.1
3 -7.68988 -1.32026 18.6227 29840.1 -47495 1.08946e+07 -191660 -74533.9 14487.2
3 7.44444 -0.204549 18.4871 135905 -142229 1.08583e+07 132583 -87285.4 -5305.33
3 -5.38146 -6.71696 20.0773 235341 -229791 1.0822e+07 108874 6755.46 35636.4
3 -4.93083 -7.04408 21.5019 -257523 258743 1.08338e+07 -14789.6 13869.7 22171
3 -3.63535 -7.63337 21.5066 101966 -116764 1.07885e+07 230594 20082.6 20793
3 -3.01377 -7.86614 20.0573 -224267 179893 1.08217e+07 -147933 9430.22 50338
3 -1.52576 -7.89702 20.0458 -72849.6 34092.1 1.08047e+07 251131 7620.05 54247
3 -1.0106 -8.03285 21.5058 -64983.4 71933.8 1.07861e+07 -225496 -9909.86 13305.1
3 0.433343 -7.96142 21.4711 -160462 173131 1.0798e+07 185844 -12622.2 -54460.8
3 1.05931 -7.7881 19.9972 29771.2 -61659.2 1.07971e+07 -226419 -62787.4 -34884.6
3 2.35413 -7.18525 20.0248 -240061 215225 1.0861e+07 35344 -32638.8 -66811.7
3 2.80338 -6.77472 21.4559 128097 -145589 1.08511e+07 -117792 -3211.76 -115776
3 -6.73635 -5.20074 21.5647 244335 -234498 1.07947e+07 -46909.7 -29882.4 23762.9
3 -6.40542 -5.74897 20.0676 -215095 193742 1.08259e+07 132668 -11210.4 28551.1
3 3.99612 -5.96142 21.4256 -179811 198623 1.08694e+07 -44306.6 12.598 -109688
3 4.47981 -5.56554 20.0233 166349 -126948 1.08828e+07 -53831.8 -38814.3 -94685.2
3 5.40208 -4.4318 20.0025 -84586.8 123307 1.08618e+07 -99177.3 -51415.9 -53997.6
3 -7.54504 -3.31142 20.0508 151943 -183812 1.08961e+07 -162433 -54166.8 45805.7
3 -7.33983 -3.91484 21.5986 -90816 94005.9 1.08416e+07 225446 -68352.1 15688.5
1 -1.44774 -4.13849 21.5017 823091 -721189 187808 613796 -281363 220634
1 -2.86214 -3.63935 21.5884 5452.16 404907 65741.9 -987510 389327 234167
1 -2.8466 -2.3918 20.7257 -518943 508802 289380 748677 78549.4 -202566
1 0.709736 -3.06933 21.0355 -297361 843804 -321242 -209501 -636138 -294255
1 -0.68003 -3.22013 20.7459 -991031 724318 135171 -84785.5 248276 -29700.8
3 5.82082 -3.906 21.4153 144742 -127737 1.08191e+07 -23931.1 -8549.64 -35629.7
3 6.62728 -2.71552 21.3865 -33164.6 42819.5 1.08352e+07 -108656 -61519.8 -577.945
3 6.92884 -2.25281 19.8809 137107 -179359 1.08393e+07 26189.3 -75990.1 -21376.3
3 -7.64312 -1.94522 20.0225 41198.5 -81258.9 1.09024e+07 233533 -84332.6 8717.65
3 -7.54852 -1.28748 21.5402 19690.4 18586.7 1.08814e+07 -202818 -135160 -11340.4
1 -3.55011 -1.2944 21.277 416083 655290 -612957 412459 208164 -562832
1 -1.51828 -2.18473 20.2685 667574 -1.0644e+06 -38166.1 -587835 104787 302094
1 -0.930185 -0.935265 20.2447 523417 -530949 -822018 -539558 -217439 -511977
1 0.467844 -0.714609 20.6128 -519732 24496 66074.1 716450 482153 49178.3
1 1.27867 -1.71892 20.9695 332157 -478279 264240 620250 44482.3 671264
3 7.40746 -0.17476 21.3931 127555 -152823 1.07841e+07 148484 -76378.1 -27968.7
3 7.31167 -0.828181 19.9668 -24232.7 -23103 1.08252e+07 -153104 -99562.3 -25106.3
3 -5.40777 -6.66445 22.9993 212498 -244533 1.07961e+07 65823.2 -4831.14 2741.02