ITEM: TIMESTEP
20000
ITEM: NUMBER OF ATOMS
2928
ITEM: BOX BOUNDS pp pp pp
-2.4247786321473718e+01 2.4247786321473718e+01
-2.4468212419120260e+01 2.4468212419120260e+01
-6.1834216000000000e+00 1.1651505760000001e+02
ITEM: ATOMS type x y z f_avestress[1] f_avestress[2] f_avestress[3] f_avestress[4] f_avestress[5] f_avestress[6]
3 1.08762 -8.3303 -5.05358 -129366 29346.6 6.55687e+06 -273475 10302.1 -14326.8
3 2.46413 -8.22238 -5.03994 -246580 147849 6.50212e+06 196455 16177.4 23263.1
3 -2.6823 -6.91388 -5.10641 -297172 192395 6.56274e+06 -10722 15782.2 3791.58
3 -1.545 -7.73606 -5.05644 52364.6 -153978 6.54136e+06 230556 4450.42 -3906.09
3 4.89214 -6.987 -5.02074 156389 -290412 6.4659e+06 -138518 23687.9 71288.6
3 -4.42572 -4.83505 -5.06453 108634 -168472 6.59805e+06 35272.1 23847 10398.8
3 5.87724 -5.99759 -5.03072 -294335 165638 6.45649e+06 -140683 22054.3 64779.9
3 -5.31284 -3.68781 -5.04837 -131971 95401.7 6.6173e+06 133172 53308.8 4962.4
3 6.90781 -3.57747 -5.09261 128832 -203716 6.4886e+06 129396 18046.3 81652
3 7.01902 -2.13173 -5.09768 -10647.6 -41663.5 6.54604e+06 -226794 13843 61341.9
3 -6.75226 -1.47478 -5.04037 146121 -201762 6.59872e+06 -43110.9 74228.2 22616.2
3 -7.46196 -0.278076 -5.02745 -5373.89 -71796.5 6.63389e+06 180681 91922.4 29117.9
2 -0.301919 -0.687678 -4.37609 938438 -459825 -346517 406563 -123994 647031
3 0.40365 -8.32309 -3.69886 -97154.1 -1417.03 6.55696e+06 283244 460.761 -10262
3 1.02122 -8.37778 -2.35851 -123744 20173.4 6.51958e+06 -283991 17223.5 20616.3
3 2.44903 -8.12398 -2.36528 -254843 158356 6.48028e+06 191899 30109.3 35718.9
3 -3.09662 -6.38178 -3.76336 115192 -203694 6.56178e+06 112647 -1511.84 -6458.94
3 -2.68455 -6.89167 -2.38806 -314926 201141 6.55063e+06 8701.61 -4283.89 -14505.3
3 -1.00381 -8.01178 -3.7012 -298825 158700 6.54143e+06 -162900 -11023.9 -6055.93
3 -1.5519 -7.69751 -2.35795 44967 -165402 6.53114e+06 234678 -8720.23 -7079.76
3 3.08376 -7.93561 -3.7355 66296.2 -154288 6.48305e+06 -245120 40881.4 43006.2
3 4.31476 -7.29195 -3.75344 -321406 227525 6.46425e+06 24327 36404.1 56358.4
3 4.85916 -6.96076 -2.4264 191835 -256184 6.4668e+06 -119579 35265 42532.2
3 -4.06417 -5.36326 -3.76324 -220469 138557 6.5863e+06 89543.7 5231.63 -12366.6
3 -4.54603 -4.96185 -2.43058 120448 -144921 6.59669e+06 51081.9 -3567.38 -47153.6
3 5.86695 -5.97887 -2.42921 -262596 203511 6.43384e+06 -115376 22941 43115.1
3 6.30848 -5.43492 -3.70741 200960 -270138 6.45189e+06 21723.6 14461.5 49207.1
3 -6.42001 -2.03148 -3.7339 -42347 25374.9 6.58973e+06 168091 55652.8 27261.7
3 -5.31376 -3.77383 -2.43623 -126514 103363 6.58607e+06 144039 25206.3 -19840.6
3 -5.59835 -3.16346 -3.73849 113529 -142047 6.61008e+06 -1716.06 49845.4 11261.2
3 6.88618 -4.13004 -3.78215 -148677 76692 6.48074e+06 -227467 14532 63002.1
3 7.07863 -3.50184 -2.46138 158622 -215418 6.45752e+06 128368 28821.9 54804.3
3 -6.73939 -1.49502 -2.37583 137387 -165770 6.55823e+06 -70591.1 44966.6 30341.6
3 -7.46869 -0.307546 -2.39249 -35376.3 -29091.4 6.59466e+06 158994 21470.7 33084.2
2 -2.64968 -0.877035 -3.54416 -236453 307168 307595 556323 359140 -684783
2 -3.40898 -0.810247 -2.31894 577857 -550779 255027 14193.5 -380469 642171
2 -1.3482 -1.33308 -3.58368 -898162 644650 533736 46150.1 -331376 -344420
2 -0.689732 -1.70836 -2.3322 666777 -308589 -136330 -454344 663671 450952
2 0.897747 -0.684102 -3.60362 -480795 160808 604522 -730152 369858 -199215
2 0.705092 -1.34847 -2.39572 59263.4 390945 -172888 635770 -769213 88209
3 7.23293 -2.10524 -2.49138 -6688.13 -59540.7 6.52936e+06 -229104 19082.2 61305.7
3 7.07033 -1.44466 -3.80526 61865.3 -135729 6.54709e+06 149496 11995.2 70153
3 7.18772 -0.0525299 -3.80235 101055 -151992 6.57668e+06 -167207 -12222.2 70995.1
3 0.374977 -8.37637 -0.996035 -95395.4 -17230.1 6.51013e+06 282106 16992.5 28936.2
3 -3.22501 -6.50372 -1.07432 129715 -213719 6.55293e+06 118037 -169.034 -44112.7
3 -0.993296 -7.95306 -1.04172 -279084 177122 6.53781e+06 -157746 6818.37 13284.8
3 3.01953 -7.85839 -1.06265 73283.2 -158439 6.48567e+06 -237574 26497.1 40382.6
3 4.33834 -7.30363 -1.09746 -310503 224105 6.459e+06 31958.3 44928.8 35530.4
3 -4.18682 -5.48343 -1.09603 -223710 155319 6.59843e+06 106287 -12129.8 -60715.5
3 6.24833 -5.4367 -1.15647 213859 -291194 6.42959e+06 21642.9 37510.1 57923.8
3 -5.80518 -3.32588 -1.07386 116794 -147264 6.59217e+06 16584.3 -718.453 -27991.7
3 6.86726 -4.14438 -1.17319 -144370 64281.8 6.47716e+06 -232027 35507.4 52797.3
3 -6.51452 -2.10988 -1.06447 -18953.3 5908.92 6.57e+06 184034 31058.5 8164.86
2 -3.04389 -0.497103 0.0936648 -385437 116254 644638 448017 777828 -180048
2 -2.85481 -1.27686 -1.08064 45648.3 327049 591.891 -15074.8 -962892 272745
2 -1.48167 -1.75348 -1.15032 649553 189407 -648605 22802.9 787823 -301145
2 -0.82252 -1.27708 0.0200162 -953188 275302 879905 214086 -280674 173091
2 1.35786 -0.914003 -1.25703 629461 329434 -686416 259609 -378833 -607312
2 0.543366 -0.837066 -0.00193267 -395551 -300815 923030 -666382 -17973.7 209211
3 7.27666 -1.45449 -1.199 70116 -118829 6.54667e+06 146662 30721.4 44445.2
3 0.434595 -8.26021 1.66452 -108524 -13182.6 6.51313e+06 275000 14921.5 27514.3
3 1.07579 -8.40175 0.328709 -121543 25424.4 6.50942e+06 -272005 10285.3 26446.5
3 2.45171 -8.14022 0.276268 -268326 162484 6.48076e+06 185433 18449 34067.3
3 -3.15138 -6.46101 1.56176 125228 -212822 6.52718e+06 130804 8808.38 -47978.9
3 -2.64697 -6.82977 0.258947 -282798 200601 6.5327e+06 -7816.04 1792.19 -31836.5
3 -0.971202 -7.91575 1.63348 -275462 178413 6.47939e+06 -162685 29279.1 12443.4
3 -1.54952 -7.7102 0.295912 74701.5 -156139 6.5157e+06 220193 13781.2 1364.02
3 3.1744 -7.93267 1.56729 34921.6 -157570 6.46876e+06 -256430 33982.4 33210.3
3 4.39205 -7.2336 1.54757 -334858 214481 6.43055e+06 15415.2 50080.3 45416.3
3 4.85248 -6.87186 0.19408 158459 -276188 6.44408e+06 -142470 52948.4 43858.6
3 -4.18381 -5.48676 1.54976 -230849 158453 6.56736e+06 108307 -13105.8 -79325.2
3 -4.56054 -4.95849 0.2453 126137 -159757 6.5928e+06 50765.7 -16445.1 -75158.3
3 5.94321 -5.98125 0.170583 -281748 179858 6.42859e+06 -144397 38690.3 47021.9
3 6.31191 -5.43198 1.49503 198578 -329629 6.43579e+06 5668.67 41503.4 46233.2
3 -5.44979 -3.87077 0.253081 -114238 100644 6.58544e+06 168062 -14370 -51187.2
3 -5.99234 -3.40034 1.5805 126482 -184393 6.60782e+06 3015.87 -13432.7 -49415.3
3 6.87684 -4.11502 1.4716 -149200 18840.7 6.47919e+06 -239160 38874.3 22244.2
3 7.06296 -3.52008 0.162335 137271 -231238 6.48926e+06 130874 41959.8 45845.4
3 -6.76747 -2.20642 1.59843 -38476.9 -21909.4 6.63949e+06 170427 26946.8 -41344.1
3 -6.91412 -1.61204 0.255918 139282 -185127 6.61986e+06 -60560.1 41885.6 -21856.6
3 -7.44816 -0.337226 0.262841 -18884.8 -61156.1 6.60983e+06 169481 95783.8 5216.31
2 -1.75368 -0.479978 0.80516 913831 225627 -856621 -244563 -332506 -219948
3 7.26588 -2.11314 0.125915 2430.38 -70575.6 6.54756e+06 -228609 45564 35517.4
3 7.16719 -1.49303 1.4541 72488.6 -120868 6.60022e+06 165306 46917.8 -3682.88
3 1.11183 -8.22182 2.95655 -119514 38638.2 6.49104e+06 -278967 20484.5 50347.5
3 -2.75029 -7.04923 2.90289 -326423 208195 6.53894e+06 8148.48 31975.4 -29443.5
3 -1.49933 -7.70895 2.91573 23441.9 -159453 6.49271e+06 237443 25498.5 3807.94
3 2.52313 -8.12177 2.9205 -249395 160149 6.46068e+06 187729 21199.9 39678.7
3 4.87527 -6.83315 2.88507 176002 -268969 6.42325e+06 -150389 54038.4 48711.1
3 -4.68153 -5.05805 2.87573 132051 -236997 6.57883e+06 56171.8 -6024 -65601.4
3 5.9876 -5.89045 2.8633 -280038 166676 6.43499e+06 -148350 38974.2 41746.8
3 -5.60662 -3.96589 2.8743 -138652 39236.3 6.59905e+06 167539 20293.3 -71431.2
3 7.12123 -3.52493 2.76739 147637 -262598 6.5074e+06 120212 40633.5 -2743.34
3 -6.92717 -1.62388 2.92797 123085 -159532 6.65165e+06 -77014.5 48953.6 -52159.4
3 -7.43061 -0.297678 2.96041 -490.023 -51118.5 6.6364e+06 159344 66745.5 -61570.3
3 7.40106 -2.16219 2.81886 44.0184 -113039 6.58413e+06 -228634 36027.8 -24591.4
3 0.478397 -8.13347 4.26146 -93320.5 22704.4 6.47023e+06 274665 21318.7 57892.1
3 1.08234 -8.17011 5.58144 -173467 67834.1 6.427e+06 -272435 60994.7 58812.1
3 2.50325 -7.97331 5.55966 -305232 208910 6.4012e+06 164230 42696.6 30241.4
3 -3.29551 -6.62413 4.24196 108481 -229755 6.53423e+06 167804 39098.4 -25567.7
3 -2.78955 -7.0671 5.5664 -285894 245344 6.52322e+06 4283.91 28821.8 -14847.3
3 -0.899872 -7.94321 4.23071 -272097 193102 6.50222e+06 -150406 31088.3 36172.6
3 -1.5445 -7.74034 5.54182 57834.7 -101667 6.51323e+06 242056 39118.2 19599
3 3.11965 -7.80274 4.25775 30330.2 -137136 6.43509e+06 -264263 57427.8 46921.5
3 4.41841 -7.14839 4.1968 -339404 238796 6.41216e+06 -1874.86 42286.7 38791.7
3 4.99811 -6.90592 5.55543 162156 -263047 6.40228e+06 -190177 69511.2 42266.6
3 -4.26359 -5.55884 4.26067 -250038 153664 6.5644e+06 146629 22394.3 -62226.6
3 -4.7259 -5.1115 5.56257 174539 -223884 6.5686e+06 56051.7 13909.2 -85507.4
3 6.03171 -5.87157 5.56688 -266957 165236 6.43007e+06 -183673 67714.6 27059.7
3 6.40788 -5.39382 4.22071 193144 -335604 6.43372e+06 -15561.6 44329.1 41438.2
3 -6.61314 -2.21944 4.26667 -40655.1 -5567.39 6.59268e+06 149517 63129.6 -80709.8
3 -5.55298 -3.96933 5.57401 -100184 51145.7 6.60602e+06 164457 37529.7 -93530.8
3 -5.94704 -3.44179 4.24253 140515 -187936 6.62189e+06 -8489.77 51903.2 -83086.9
1 -0.967374 -2.40168 5.35405 894663 -692920 97245.4 361822 -278333 458131
1 0.412341 -2.85426 5.0417 -402867 561239 249048 -712010 459897 -81993.9
3 6.97817 -4.06639 4.1911 -137661 13383.7 6.51721e+06 -262949 31804.7 -969.235
3 7.26232 -3.50574 5.54893 185371 -250360 6.49604e+06 102837 53296.1 -20140.7
3 -6.76509 -1.57457 5.60751 151293 -137373 6.59417e+06 -81646.5 79086.1 -87031.2
3 -7.24551 -0.206929 5.61414 4832.03 -24876.1 6.6205e+06 139437 80709.1 -71101.4
1 -1.311 -1.05467 5.33958 930647 -788041 17021.5 131324 -155712 -540455
1 -0.28984 -0.0893352 4.95971 -786397 785621 274993 412654 452408 192689
1 1.02412 -0.472473 4.65415 -278361 601901 93618.5 658878 -340762 630340
1 1.40412 -1.92256 4.76865 173370 234839 -17533.5 -723862 -206581 -661647
1 2.67877 -2.00562 5.37161 424680 -669319 500273 543328 160226 495241
1 3.19775 -0.697184 5.62501 -384357 1.01038e+06 -561964 -175987 -640381 -46391.7
3 7.30095 -2.10801 5.53531 41843.3 -102941 6.59663e+06 -235441 66957.7 -63424.6
3 7.15247 -1.46993 4.19935 79562 -166749 6.62177e+06 171919 38574.6 -53715.3
3 1.09499 -8.23204 8.19634 -122089 24108.1 6.43914e+06 -267841 75849.6 -778.624
3 -3.28599 -6.62013 6.86704 162737 -179842 6.50094e+06 116579 14646.4 -65212
3 -2.75969 -7.008 8.1828 -299748 186769 6.48616e+06 -67913.6 42971.3 -66610.2
3 -0.952475 -7.86024 6.86096 -238865 197028 6.47642e+06 -153069 63811.2 -13978.9
3 -1.54104 -7.71536 8.22325 71210.8 -165263 6.49001e+06 195099 60191.4 -20775
3 0.455756 -8.12972 6.8781 -97607.1 70984.3 6.40877e+06 263592 79795.9 20460.5
3 3.15269 -7.87705 6.88098 20807.8 -116541 6.36626e+06 -278224 65141.4 -2700.4
3 4.38783 -7.16254 6.86142 -334667 254484 6.36928e+06 -6175.61 88487.8 16247.5
3 4.94306 -6.87962 8.18737 209007 -250652 6.37815e+06 -135120 78716.3 -6700.78
3 -4.30909 -5.64431 6.89049 -206936 168386 6.54886e+06 80935.4 -13827.7 -89356.7
1 -0.484726 -4.22907 6.68158 798478 -182552 -192143 -620991 337597 507020
1 -0.298722 -4.58548 8.05328 748874 259074 -999866 -306089 199259 -149402
1 1.99333 -4.11303 6.48859 305114 530571 -432131 165881 -710102 -414188
3 6.52738 -5.41416 6.88981 209544 -294805 6.43465e+06 15141.5 79557.8 -15658.5
3 -6.50279 -2.1729 6.93455 -12040.7 14195.8 6.5892e+06 132095 59053.5 -97764.8
3 -5.91731 -3.47964 6.90029 148703 -150058 6.58774e+06 -25770.4 20603 -101565
1 -2.37514 -2.71571 7.30981 147561 376661 -251391 275738 350300 -792642
1 -1.50746 -3.26828 6.36766 -818813 834061 452301 233988 124059 -350054
1 0.719312 -4.00316 5.91833 -61663 246468 299258 817449 -494693 21373.1
1 2.98574 -3.11328 6.17734 230459 5708.79 -74557.8 -81038 624895 687468
1 3.75469 -2.88859 7.41515 -469048 -201553 538900 -396013 -531905 -570914
3 7.13517 -4.13212 6.89887 -161458 69936.1 6.49576e+06 -230557 83467.1 -10081.8
1 -2.77231 -1.297 7.26094 282358 192806 -139748 -381911 65219.2 948826
1 -2.16535 -0.5087 6.30328 -674252 443395 374530 -672779 -20811.2 399390
1 3.96992 -0.504552 6.81233 -95475.1 915008 -1.01879e+06 -113964 289039 79050
3 7.32929 -1.45261 6.85753 54338.7 -145294 6.59508e+06 176151 111702 -88805.5
3 2.49334 -8.0565 8.24809 -254735 144422 6.39247e+06 185119 88204.2 -2033.8
3 -3.29342 -6.61702 9.53398 156991 -253512 6.49408e+06 72059.2 89995.3 -25299.2
3 -0.930656 -7.94882 9.53555 -253660 171223 6.46849e+06 -172963 93323.7 -6307.31
3 0.453585 -8.18326 9.55722 -93975.9 1037.71 6.43798e+06 256698 68296.2 16742.2
3 3.10489 -7.83399 9.54335 57564.2 -131898 6.4029e+06 -260906 68534 21468.6
3 4.43461 -7.26408 9.51039 -315784 237779 6.40959e+06 20206.9 77588.4 2724.86
3 -4.26242 -5.6135 9.52108 -277423 163124 6.53897e+06 28675.8 105009 -31817.7
3 -4.66994 -5.14768 8.18914 90045.6 -237398 6.56003e+06 -55592.1 16937.6 -79226.9
1 1.05966 -4.81353 8.63599 -869842 -21208 943415 407497 360861 -54372.2
1 2.15664 -4.49935 7.84676 -591867 -279510 961491 -566748 310936 149084
3 6.02046 -5.89917 8.20388 -265480 182762 6.44365e+06 -92575.9 79234 -2499.51
3 6.36766 -5.40409 9.53898 191132 -267891 6.46062e+06 59032.3 48513.9 587.451
3 -6.39279 -2.17886 9.52962 -13788.6 13766.9 6.59391e+06 125194 17624.3 -69489.7
3 -5.88764 -3.46094 9.52155 118230 -167278 6.57161e+06 -54053.5 48141.8 -39701.2
3 -5.5534 -4.03343 8.20338 -172737 101619 6.5862e+06 114239 20906.9 -83202.5
1 -2.15452 -3.07379 8.68771 193484 -1.02843e+06 685411 -10893.8 -297671 616471
1 -1.14731 -4.01266 8.99878 -712755 -92815.1 506183 249970 -677224 417914
1 3.26204 -3.73684 8.44057 558190 473427 -941321 351619 162357 168693
1 3.16466 -3.21425 9.73231 453105 217701 -144136 823673 529193 -401176
3 7.23672 -3.4739 8.20759 121692 -166419 6.51032e+06 153376 57678.5 -24685.6
3 6.92917 -4.02857 9.49192 -147414 124485 6.53044e+06 -200097 29362.9 -20264.4
3 -6.67262 -1.56966 8.20143 138361 -139948 6.57458e+06 -77984.3 29441.4 -83251.8
3 -7.02718 -0.172976 8.25607 44075.1 -20031.4 6.59088e+06 136578 46998.3 -65580.6
1 -2.84997 -0.819725 8.68534 379383 -796475 792396 294827 -89178.9 -613934
1 -2.46282 -1.97059 9.52301 132973 959355 -878791 -166028 316262 9884.97
1 4.14585 -1.07946 9.07757 210321 373849 -300211 -373044 153118 915333
1 4.25829 -1.57904 7.73576 88824 -909051 606542 294427 -59417.4 -617765
3 7.47102 -2.07214 8.16267 -95563.5 12024.4 6.60672e+06 -196419 79278.7 -40722.3
3 7.41662 -1.43523 9.47879 -40622.7 -32915.6 6.62176e+06 189463 14774.4 -31205.6
3 1.07649 -8.18025 10.9094 -139748 107627 6.45413e+06 -262448 65331.8 -20848.3
3 0.424647 -8.08082 12.2089 -137594 52094.9 6.4904e+06 264535 79374.7 -49135.8
3 -2.74278 -6.98035 10.8211 -299335 235025 6.50671e+06 10311.3 120966 -36921.5
3 -3.26277 -6.64125 12.1505 120517 -211134 6.53897e+06 195433 97173.3 -56324.1
3 -1.55388 -7.76069 10.8316 35584.4 -103712 6.51621e+06 251857 101801 -28403.7
3 -0.96532 -7.87711 12.1822 -290536 205362 6.53919e+06 -143171 74202.8 -39765.2
3 2.52997 -8.06359 10.8981 -268047 209568 6.44371e+06 159897 84534.5 -8532.92
3 3.1124 -7.91054 12.2131 29002.3 -113257 6.49146e+06 -289862 63360.9 -24747.4
3 4.95593 -6.88231 10.8902 187091 -248020 6.46203e+06 -175295 59496.1 -22583.3
3 4.42181 -7.26024 12.2122 -332645 255321 6.51327e+06 -12213.7 92119.1 -22636
3 -4.71855 -5.15142 10.8219 197212 -208182 6.54573e+06 57537.2 74733.3 -37073
3 -4.35829 -5.6738 12.1477 -241919 137295 6.563e+06 165209 82531.7 -71905.9
1 0.935385 -4.22578 9.92773 426949 398664 -445449 -262564 -829926 196471
3 5.98386 -5.92162 10.9144 -249858 205087 6.46525e+06 -177917 46834.6 -26327.8
3 6.34654 -5.33142 12.2523 233541 -323974 6.5332e+06 -37568.8 51712.6 -69634.8
3 -6.55347 -2.25606 12.2491 -12270.9 -21825.3 6.64361e+06 140493 11346.1 -43778
3 -5.55998 -4.05151 10.8444 -87706.9 61351.2 6.60313e+06 159727 46322.6 -49417.2
3 -5.87678 -3.5679 12.1927 166187 -190754 6.64458e+06 -13826.7 18240.6 -69928.4
1 -0.399923 -3.8016 10.1789 198467 60887.6 -149876 86352.3 785831 -522899
1 -0.729539 -2.73702 11.0788 677985 -843181 477843 -213334 301436 -519741
1 2.01618 -3.54033 10.4914 436269 -249584 273959 -779305 -541470 -186434
1 1.73233 -2.40104 11.3954 -827098 805184 133827 359865 402382 140094
3 6.97017 -4.07883 12.2055 -120296 35288 6.59747e+06 -270710 57227.8 -91264
3 7.06923 -3.43215 10.8771 194792 -173903 6.58539e+06 134214 36418.7 -48123.6
3 -6.66909 -1.61265 10.8985 142449 -161410 6.61692e+06 -81169.1 5115.73 -66699.6
3 -6.98921 -0.239808 10.886 19089.2 -49705.4 6.566e+06 150105 5721.34 -64125
1 -1.72712 -1.75206 10.7176 -210024 1.0875e+06 -447820 -240155 -563573 -92247.7
1 -1.19294 -0.457492 11.0386 488247 -647055 560796 563272 197822 457830
1 0.398009 -1.96581 11.6447 -308601 535071 -23012.6 614084 -397566 563038
1 0.0507528 -0.554344 11.7112 173324 132627 -417.709 -722032 -190994 -686892
1 3.5824 -1.85538 10.0581 -701177 600527 393727 -594853 95000.3 400087
1 2.39162 -0.0233776 11.117 842124 -817803 -45410.8 344731 -288229 515840
1 2.77105 -1.36249 11.0848 826448 -853781 -283319 103197 -44492.2 -581500
3 7.31814 -2.05658 10.8892 19480.6 -29357.5 6.62832e+06 -213527 22914.8 -58167.4
3 7.28052 -1.43078 12.2205 115100 -152701 6.6724e+06 175213 67627.4 -71032.2
3 1.13241 -8.27703 13.5258 -164748 68471.7 6.51015e+06 -268424 78943.6 -22842.3
3 -2.77368 -6.97945 13.4855 -328452 224415 6.58744e+06 15908.2 78285.5 -44228.8
3 -1.57572 -7.73522 13.4935 17683.5 -106907 6.54165e+06 260238 82330.5 -26693.3
3 2.537 -8.11947 13.5395 -292013 194761 6.52396e+06 168447 84367.9 -11206.9
3 4.92059 -6.90908 13.5335 176661 -269423 6.54707e+06 -185320 73229.7 -14754.3
3 -4.79927 -5.24875 13.5585 149449 -256057 6.60606e+06 80619.9 84145.3 -84082.2
3 5.99884 -5.96396 13.5796 -272858 184791 6.58282e+06 -173469 73023.1 -14192.2
3 -5.63465 -4.09829 13.5437 -124900 18300.9 6.63255e+06 190812 51875.5 -76650.6
3 7.0951 -3.50576 13.5195 171366 -288685 6.59438e+06 110737 46831.6 -83219.7
3 -6.90898 -1.75428 13.5829 126412 -166006 6.65951e+06 -79132.2 18010 -56541.2
3 -7.27846 -0.365237 13.5191 -16399.6 -52114.6 6.60335e+06 153763 20474.8 -80092.7
3 7.16981 -2.04647 13.5206 28645.6 -131385 6.68027e+06 -254083 70666.9 -76205.1
3 0.462878 -8.30152 14.8863 -146167 56942.8 6.52618e+06 267931 82583.2 -12755.4
3 1.12635 -8.31039 16.177 -116267 93793.7 6.53186e+06 -266435 58368.7 -21152
3 -3.31755 -6.61207 14.8025 140735 -214419 6.6062e+06 187557 89701 -49775.5
3 -2.70455 -6.93469 16.2037 -272141 248136 6.59364e+06 -1844.76 79252.1 -54914.1
3 -0.910473 -7.98796 14.9134 -288417 210721 6.56327e+06 -142523 77942 -14335.1
3 -1.47395 -7.63426 16.1818 67328.8 -96513.5 6.55365e+06 239723 77330.1 -34105.4
3 2.51613 -8.12174 16.1772 -238622 207464 6.53082e+06 164968 64365.6 -10835.3
3 3.10054 -7.77908 14.8471 6020.43 -106999 6.55638e+06 -281175 57376.5 4760.1
3 4.41217 -7.29468 14.8976 -347880 253684 6.55802e+06 -20835.9 83083 -13297.6
3 4.94434 -6.9076 16.1957 206781 -240368 6.5396e+06 -178013 75731.9 -18946.5
3 -4.39677 -5.68903 14.8781 -224300 147925 6.62607e+06 150702 86716.7 -83561.9
3 -4.92811 -5.27806 16.2405 159939 -220022 6.61634e+06 54017.9 66155.7 -100989
3 5.91905 -5.88031 16.2058 -253779 212454 6.56354e+06 -163901 90865.6 -25814.5
3 6.36675 -5.39192 14.8637 225575 -304358 6.5949e+06 -23452.7 62798.5 -17243.8
3 6.92242 -4.08651 14.8659 -111979 50458.7 6.61194e+06 -264809 55599.3 -48504.6
3 -6.74639 -2.3589 14.9241 -40860.9 -50174.4 6.62596e+06 157166 39226 -91233.7
3 -5.77927 -4.17252 16.2482 -104607 62038.1 6.61008e+06 178096 45170.2 -107220
3 -6.11443 -3.64861 14.9218 150726 -215063 6.61294e+06 1940.66 55131.2 -86894.7
2 -0.555663 -3.03023 16.0211 603768 -230446 -32613.6 141547 -538666 659642
2 1.85115 -3.5185 16.3638 10001.3 -77765.8 392552 -914510 211006 -92840.7
2 2.19954 -2.2476 15.7223 -567860 496410 -342429 735442 -329484 169147
3 7.15815 -3.48382 16.1854 191491 -217461 6.59956e+06 113789 73035.2 -74421.2
3 7.37484 -2.10782 16.2041 30746.6 -55750.7 6.62779e+06 -233393 73800.6 -84013.3
3 -7.01832 -1.78408 16.2444 147713 -167153 6.61133e+06 -73655.6 31996.2 -121880
3 -7.34406 -0.368126 16.2143 15256.8 -51197.1 6.57676e+06 145796 20796.8 -116150
2 -0.209249 -1.8383 15.3578 651168 -908864 563464 -450911 -283396 97426.3
2 -1.00909 -0.639317 15.5783 -410187 1.04053e+06 -139438 -110925 519270 380338
2 1.17844 -1.45186 15.1824 -249746 417412 -322937 738361 471486 -375934
2 3.34369 -1.70165 16.3768 723620 -991945 192805 -294806 158329 162304
2 3.41378 -0.268392 16.5758 810050 -476441 -148813 115312 319956 -667310
3 7.28456 -1.45914 14.8231 100197 -178383 6.6659e+06 183094 41204.6 -87912.1
3 0.487238 -8.18864 17.5137 -25853.7 23152.2 6.54363e+06 251702 74648.9 -30793.9
3 -3.29498 -6.5877 17.5082 148560 -255148 6.57717e+06 61239.7 58541.3 -93618.1
3 -0.908925 -7.90952 17.5025 -181184 149678 6.53935e+06 -177443 78786.3 -35327.4
3 3.1869 -8.02244 17.5355 78269.4 -118814 6.51009e+06 -244965 78272.3 -43540.7
3 4.43358 -7.32654 17.5519 -285791 245423 6.51919e+06 32638.2 90936.7 -27136.4
3 -4.40026 -5.6876 17.544 -264017 165698 6.6183e+06 43929.1 66293.2 -88594.9
2 0.117884 -4.29243 17.807 -531761 -158268 668501 567712 -362374 14617.5
3 6.39352 -5.41147 17.5225 209605 -280534 6.58625e+06 39027.2 84459.5 -66310.6
3 -6.87558 -2.43301 17.5309 -49486.9 8064.05 6.59323e+06 142374 37427.1 -112112
3 -6.18938 -3.66946 17.5931 93363 -179163 6.60764e+06 -31668.4 27440.7 -109891
2 -1.22693 -3.94227 18.0335 432740 -52517.4 -890659 -397481 39039.1 474120
2 -1.71358 -3.14315 16.9072 -722580 -10144.6 319352 322729 472135 -446258
2 0.494127 -3.8157 16.5481 185592 623530 -323985 -370781 752920 -68464.6
2 2.78277 -3.73572 17.4499 791899 -240275 30891.3 733302 -70087.8 526448
2 3.62617 -2.54033 17.477 -739486 1.00216e+06 149401 -218645 -418218 -301510
3 6.9251 -4.04749 17.5327 -171904 85060.3 6.62297e+06 -198337 95676 -68811.2
2 -2.41853 -1.97291 17.2394 183987 -631511 328969 -114477 95500.1 -949739
2 -2.05795 -0.691376 16.5783 203991 803065 -751156 66382.6 -95589.1 506749
2 4.17203 -2.05823 18.6932 134687 865109 -720488 -91121.4 -274456 -611271
3 7.53549 -1.48152 17.5305 15420.8 -70589.4 6.64115e+06 183155 103864 -104460
3 7.42648 -0.0628154 17.4843 49925.9 -106689 6.69897e+06 -176225 87763.3 -104120
3 0.509155 -8.05016 20.1626 -37404.2 35306.5 6.55857e+06 252424 100640 -42798.8
3 1.13922 -8.20573 18.8349 -23586.1 17027.1 6.52221e+06 -270656 92102.5 -20805.7
3 -3.3518 -6.69881 20.1768 147984 -217919 6.55896e+06 101224 114903 30139.9
3 -2.75042 -6.93446 18.8245 -260680 122549 6.58357e+06 -122201 103174 -26696.4
3 -0.882578 -7.80469 20.1774 -190603 169395 6.56148e+06 -163055 111086 -18787.2
3 -1.46795 -7.59133 18.8464 161460 -188076 6.55607e+06 189450 101077 -16955.9
3 2.55764 -8.19043 18.8394 -171001 114678 6.4913e+06 197737 88054.6 -42570.1
3 3.17688 -7.91574 20.1776 81228.4 -130198 6.52901e+06 -244170 66508.1 -19702.3
3 4.47032 -7.35584 20.1937 -276508 242743 6.54408e+06 44728.8 61030.7 -32515.3
3 4.91932 -6.89597 18.8636 226161 -289835 6.54453e+06 -92384.9 71977.6 -52215.6
3 -4.34997 -5.70821 20.1925 -243769 158027 6.55447e+06 62919.7 113115 -4901.58
3 -4.81787 -5.24356 18.8665 103592 -230430 6.54986e+06 -4869.01 88972 -30223.8
2 1.00986 -4.64043 18.8169 -544250 24773.9 626815 -328676 -720491 -356624
2 0.662409 -4.33746 20.1975 -29046.7 56897.4 43724.8 -44022.2 844868 450177
2 2.39389 -4.24257 18.6672 712318 415977 -884827 327351 171260 232960
3 5.97782 -5.92768 18.8514 -303934 202719 6.58522e+06 -59916.1 62323.8 -46985.1
3 6.34387 -5.35979 20.1758 234241 -239678 6.60381e+06 35436.7 35442 -59680.6
3 -6.91023 -2.43828 20.269 -26481.2 25524 6.6092e+06 149971 2481.75 -83489
3 -5.76374 -4.16125 18.8683 -185000 72733.7 6.61644e+06 109358 71076.7 -64374.1
3 -6.19994 -3.6598 20.2578 109593 -165608 6.6051e+06 -28641.3 76625.7 -49928.9
2 -2.34881 -2.48554 19.6094 -637646 433476 550035 410552 -87477.3 366194
2 -1.63232 -3.69348 19.3308 484502 30681.6 -640032 -601892 -445366 -497702
2 3.73923 -2.6069 19.9365 113870 -1.14225e+06 875424 -35954.4 66169.6 106408
2 2.96673 -3.79329 19.9547 -675499 -247648 901103 -540221 222101 191163
3 7.00281 -4.10312 20.2066 -126984 119486 6.6452e+06 -211106 22314.9 -72923.3
3 7.25514 -3.52243 18.8656 108990 -169585 6.63302e+06 195288 39571.1 -86244.3
3 7.50486 -2.09384 18.8381 -168332 35714.2 6.67715e+06 -202452 42658.9 -85080.5
3 -7.07475 -1.83061 18.8981 145925 -130951 6.57295e+06 -72673.8 24378.6 -108102
3 -7.4283 -0.416151 18.866 26188.3 -8357.58 6.54932e+06 135646 -2002 -100722
2 -2.81241 -1.62102 18.5946 229320 -157263 231849 130334 -43577.1 860864
2 -2.68105 -0.194562 18.794 241622 758451 -630446 -158721 -216530 -747890
2 3.88607 -0.264241 20.2188 118246 -503396 340578 -58551.5 60420 -920880
2 4.25939 -0.58035 18.8825 129349 -94445.1 223937 254013 -75548.5 1.0085e+06
3 7.64537 -1.5022 20.1365 -14600.8 -52457.5 6.69943e+06 166654 -24853.8 -80460.4
3 7.58232 -0.12712 20.1754 97931.2 -102002 6.71822e+06 -178249 -5230.81 -106636
3 1.1396 -8.21089 21.4686 -91913.3 89418.7 6.58289e+06 -265940 84660.4 -55927.6
3 -2.87554 -7.1901 21.4887 -260862 237633 6.58201e+06 3956.5 94437.9 3055.41
3 -1.55499 -7.71109 21.5184 76250.8 -102577 6.57157e+06 239013 89518.6 -25128.7
3 2.59189 -8.08586 21.4825 -214565 204511 6.56932e+06 174595 91807.8 -48688.9
3 5.00763 -6.91496 21.4913 197965 -227150 6.60838e+06 -173864 46907 -74102.3
3 -5.7424 -4.17057 21.5752 -85006.9 109233 6.63188e+06 141770 47336.6 -36480.5
3 -4.80926 -5.21112 21.5798 169285 -169472 6.56623e+06 38439.5 92802.1 -30296.7
3 5.98867 -5.90057 21.4907 -257630 226735 6.65168e+06 -162943 64354.3 -65421.5
2 -0.711125 -3.95127 20.4647 -51166.5 -97743.9 387035 666948 605138 -100109
2 -1.90158 -1.97798 20.8711 984277 -440549 -153774 81173 343373 -687659
2 -0.937231 -2.89168 21.4945 -309456 691551 99462.5 -447811 -682966 127513
2 1.84234 -3.82465 20.9065 357838 199459 -603147 173137 -613255 -483715
2 0.223869 -2.26379 22.0223 -119129 50923.7 401732 -803932 25976.2 459327
2 1.57485 -2.72646 21.754 669044 -578819 106828 489681 -128451 -699950
3 7.37356 -3.55903 21.5313 195188 -205918 6.67953e+06 125787 37628.1 -94173.5
3 7.67467 -2.15411 21.5036 28442.9 -32107.8 6.72675e+06 -226790 11064.4 -93289.7
3 -7.11251 -1.84408 21.5516 146570 -183241 6.60185e+06 -60360.3 -33150.7 -54796.5
3 -7.39413 -0.441332 21.5335 11296.9 -57733.3 6.56375e+06 156817 -33707.1 -57574.8
2 -1.77878 -0.577809 21.0494 839919 -981126 349927 -277931 245735 139063
2 -0.668079 0.0594659 21.6936 -519937 509007 -159506 818892 -417279 97691
2 0.337711 -0.779493 22.1877 -235233 495361 -315522 819825 405517 -464867
2 1.72108 -0.397562 22.0127 576734 -864222 515643 -342825 -244977 -68297.2
2 3.56371 -1.55041 20.9278 -124946 805010 -962184 94339.3 -74229.5 460773
2 2.44199 -1.56137 21.6944 -636663 902115 -285770 -78297.9 616480 314139
3 1.12993 -8.18409 24.1286 -120235 37810.6 6.61911e+06 -265655 59113.6 -29010
3 -3.42675 -6.81776 22.8106 151876 -178876 6.59355e+06 141721 66812.9 -30228.9
3 -2.82918 -7.15831 24.1685 -282344 201418 6.59648e+06 -17562 57580.4 -30069.9
3 -0.921631 -7.81394 22.8097 -253753 204807 6.6186e+06 -154551 69605.7 -42307.8
3 -1.53151 -7.71741 24.136 60575 -131784 6.61778e+06 225781 58915.4 -15237.6
3 0.462571 -8.2341 22.8166 -93479.9 34659.5 6.58747e+06 265223 73818.4 -53462.2
3 2.55843 -8.02945 24.1635 -238457 162918 6.65811e+06 186977 59924.6 -53333
3 3.16485 -7.8292 22.834 75885.4 -121281 6.61349e+06 -265292 64282.4 -61414.7
3 4.46695 -7.22371 22.8883 -295699 237182 6.65638e+06 23314.9 72462.3 -66496.1
3 4.99196 -6.87014 24.19 197570 -255772 6.71165e+06 -140969 29434.6 -80320.5
3 -5.70911 -4.16276 24.1731 -118390 64642.7 6.61631e+06 154781 25361.7 -19565.8
3 -4.83093 -5.30652 24.2013 137344 -205395 6.60583e+06 46901.4 28886.5 -26282.5
3 -4.41668 -5.77851 22.839 -203201 177166 6.61159e+06 102242 58305 -30445.7
3 5.9948 -5.90024 24.1637 -274378 225348 6.70157e+06 -134166 55682.9 -81985.4
3 7.21443 -4.23132 22.8682 -123605 81137.5 6.70738e+06 -232174 64564.3 -76340.2
3 6.4277 -5.42217 22.8277 249678 -292781 6.70046e+06 9717.44 65716.2 -94476.7
3 -6.06499 -3.62501 22.9089 151537 -170286 6.62073e+06 -13111.5 11340.5 -23639.1
3 -6.84183 -2.40484 22.8968 -42660.6 20268.7 6.64725e+06 150312 -24714.4 -29168.2
3 7.42898 -3.58955 24.2245 159491 -196839 6.7274e+06 141038 50239.9 -104684
3 7.69143 -2.17534 24.1894 4444.63 -53327.7 6.73496e+06 -231721 32134 -73634
3 -7.45906 -0.413422 24.2031 5032.92 -46815.7 6.61251e+06 178131 -28885.8 -40552.4
3 -7.0251 -1.79645 24.2446 132445 -160500 6.65693e+06 -60910.5 -8221.15 -20975.9
3 7.83797 -1.54738 22.8405 75736.3 -108481 6.72384e+06 174952 35832 -78269.3
3 7.66185 -0.157839 22.8675 116413 -131395 6.80159e+06 -164541 46699.3 -75591.4
3 -3.34082 -6.76252 25.4977 97979.6 -214741 6.57364e+06 144319 30233.2 1215.84
3 -0.88685 -7.88606 25.5011 -258677 170444 6.6197e+06 -153592 45476.2 -8093.88
3 0.497453 -8.24895 25.5292 -97741.1 1294.18 6.63364e+06 255054 60874.2 -13728.3
3 3.15957 -7.77236 25.5039 72569 -136232 6.70151e+06 -244826 22350.3 -54428.3
3 4.48424 -7.17557 25.5387 -278684 219589 6.70493e+06 53391.1 17860.1 -72032.8
3 -4.35258 -5.78767 25.5214 -244981 158313 6.61265e+06 130561 26121.1 -7339.3
3 6.44084 -5.38599 25.5098 239010 -274273 6.71447e+06 43378.6 22678.2 -87235.5
3 7.20982 -4.21698 25.5193 -149703 114686 6.72165e+06 -219683 39237.3 -92920.9
3 -6.73407 -2.37581 25.529 -30917.2 30694.6 6.64223e+06 155426 1918.21 -30631.8
3 -6.05687 -3.63709 25.4983 137811 -158214 6.6178e+06 -1516.13 26992.8 -20209.1
1 -2.52912 -0.581328 26.2841 -57983.3 882225 -429055 -52450.6 726739 -576599
1 -0.27223 -1.47158 25.9062 1.08039e+06 -777453 -180412 -2481.24 57696.4 616393
1 -1.36523 -0.615568 25.5218 -900309 671300 264018 -561950 344120 -193088
1 0.947585 -0.797749 25.5409 -829646 694331 112512 525039 -468151 -151970
1 2.05162 -0.979534 26.3448 131778 794690 -626046 119106 -632563 -565533
3 7.68618 -1.55798 25.544 57471.3 -46694.8 6.72502e+06 164845 40621.6 -95511.6
3 7.6035 -0.150372 25.5403 102114 -85465 6.75528e+06 -176527 21022.5 -76022