ITEM: TIMESTEP
80000
ITEM: NUMBER OF ATOMS
2928
ITEM: BOX BOUNDS pp pp pp
-2.1902973205219620e+01 2.1902973205219620e+01
-2.2549742688239043e+01 2.2549742688239043e+01
-2.2915032400000001e+01 1.3324666840000000e+02
ITEM: ATOMS type x y z f_avestress[1] f_avestress[2] f_avestress[3] f_avestress[4] f_avestress[5] f_avestress[6]
3 -6.5807 -8.29316 -21.3042 -715029 -112551 -5.02051e+06 334550 1.71194e+06 -964054
3 -5.3217 -8.85567 -21.1341 -1.33454e+06 -83283.4 4.62399e+06 807214 3.08061e+06 67269.9
3 -4.65849 -8.97991 -22.333 -670061 96974 1.54763e+06 -307745 1.245e+06 -155773
3 -3.24741 -8.86123 -22.3288 -534934 93690.5 1.71846e+06 101702 57183.1 19793.4
3 -2.62582 -8.56898 -21.1021 1.48938e+06 103036 2.15301e+06 193506 -810885 -283393
3 -8.1305 -6.64036 -22.3099 54191 845171 -586298 -206941 88848.3 -209073
3 -8.48247 -6.20922 -21.0157 183597 -56990.4 -335167 38559.8 -66430.3 -284087
3 -7.1038 -7.64531 -22.4062 619054 219127 -2.7757e+06 -251118 647707 -35795.1
3 -1.30451 -8.04144 -21.1383 1.01211e+06 147241 -39271.5 448678 -405417 104044
3 -0.814226 -7.57229 -22.3487 279722 -39803.2 -269849 -52587.3 -468527 -136639
3 0.306767 -6.74735 -22.369 -55863.4 100702 -590544 123946 -268490 129956
3 1.08808 -6.54194 -21.1991 19303.8 -232873 -982522 -242052 -4746.39 222170
3 2.26574 -5.8652 -21.2714 -342094 43111.5 -878244 -45476.7 68778.5 293802
3 -9.29048 -4.1123 -21.9848 81054.2 326692 -55879.2 -197822 41660.6 -362697
3 -9.00521 -4.93585 -20.8633 3838.82 357401 -244276 185896 4562.3 -458875
3 2.54303 -5.07908 -22.4157 -212373 -364583 -1.01706e+06 -346372 -116268 167335
3 4.66117 -4.43568 -21.3867 -44080.1 -533727 -1.00904e+06 -228237 -345552 204907
3 3.82542 -4.47845 -22.4698 -590179 -6412.01 -1.22484e+06 -256608 -69784.6 252029
3 -9.29215 -2.67602 -21.8798 90560.4 311822 507201 163881 -29066.4 -362991
3 5.72048 -3.48674 -21.329 -365189 -24070.5 -1.0357e+06 -343048 -115846 -33865.7
3 5.95745 -2.66848 -22.4246 109000 -540635 -794062 -64714.3 -235161 99184.5
3 -8.3087 -0.0884709 -21.7988 -89501.1 124759 792812 -112657 13324.9 -276464
3 6.76245 -1.55179 -22.3328 -138493 -98734.5 -170008 -337127 25478.2 12822.8
3 6.99364 -1.01341 -21.085 116055 -4156.58 -55123.8 168945 -154883 -13301
3 -4.79614 -8.77828 -19.5139 5.86837e+06 311766 5.62572e+06 -560029 -1.72311e+06 1.0644e+06
3 -3.16631 -8.80158 -19.8015 4.73342e+06 204282 2.55178e+06 25274.7 -226458 -368342
3 -2.23931 -8.8072 -18.695 2.15826e+06 138716 1.25134e+06 -356358 1.45903e+06 -226392
3 -0.885333 -8.54447 -18.8512 1.45785e+06 -3650.87 -524459 63170.6 933556 352308
3 -8.01124 -6.94613 -19.9142 -2.14922e+06 -1.30205e+06 -1.42624e+06 1.73062e+06 548936 -964915
3 -7.10788 -7.94917 -20.0929 -2.75201e+06 -2.03579e+06 -5.66666e+06 2.32136e+06 1.52931e+06 -1.9223e+06
3 -6.28755 -8.10868 -19.0334 3.0701e+06 754976 -950413 -1.4225e+06 -4.87915e+06 1.79058e+06
3 -0.482268 -8.00138 -20.028 829288 -109160 -1.00588e+06 -69593.8 200447 356626
3 0.763402 -7.32607 -20.0763 551383 3750.82 -730561 141643 358308 358302
3 1.67069 -7.37562 -19.0421 403177 -401298 -824115 -201465 454057 445493
3 2.83125 -6.66465 -19.147 79870.4 -65535.7 -684691 1363.57 419175 297211
3 -8.88157 -4.36375 -19.6235 78750.2 197668 -469570 -226302 -132990 -210275
2 0.757753 -3.71626 -19.0818 -1.51492e+06 7398.16 689228 182105 252845 -392193
3 3.178 -5.89359 -20.2228 -61210.3 -406769 -810127 -270091 -55636.1 353707
3 4.35796 -5.15105 -20.2268 -409621 26981.1 -1.01723e+06 -221746 -82633.5 162778
3 4.99012 -4.8708 -19.0222 47579.6 -253106 -697350 -31043.7 -393698 21460
3 -8.86211 -2.99689 -19.5106 136111 152254 410373 173144 106315 -73192.5
3 -9.01791 -2.14159 -20.6139 -45392.6 166472 407889 -153793 -13674.7 -137915
2 -1.5155 -3.36552 -19.4948 -521274 133723 721476 665305 -709965 10309.9
2 -2.50067 -2.3749 -19.4592 357259 -809083 705860 453089 -252265 -389230
2 -0.210317 -3.01773 -19.8971 793777 105304 -744490 -143482 136534 447488
2 2.25662 -1.81525 -18.9465 269272 399290 -912236 581532 -487857 430785
3 5.86591 -3.80721 -18.9292 -205716 203508 -867920 -231110 -219517 -238883
3 6.18978 -3.06802 -20.067 154857 -226129 -775850 88717.5 -409229 -186021
3 -8.64936 -0.756133 -20.5802 125652 27135.4 832812 87193.1 60735.1 -235777
3 -8.24744 -0.254115 -19.3498 -74658.6 -18094.2 809170 -168508 89830.6 -112894
2 -2.26546 -1.0163 -19.8615 -133650 1.01711e+06 -616042 44496.3 563034 -162377
2 0.0948891 -1.67432 -20.2345 957392 -739896 231011 -404669 68205.5 113372
2 -0.951819 -0.646764 -20.1874 -1.02466e+06 977451 248466 69317.2 -38574.6 -53457.1
2 1.28116 -1.09805 -19.6601 -237452 332755 163926 1.14987e+06 -290468 264247
2 1.15203 -1.13818 10.1197 418617 657585 -1.04621e+06 410199 439459 -46899.1
3 6.77183 -1.80117 -19.9344 -56313.7 150011 -493469 -267472 -51388.5 -290237
3 -6.01018 -8.63581 -17.139 -1.03712e+06 549647 938909 167853 -554818 -129209
3 -4.98786 -9.1548 -17.9661 -275500 -6410.81 66489.1 380087 -557857 -283554
3 -3.92384 -9.53775 -17.1108 -3.24784e+06 8118.88 1.7568e+06 349438 693902 -288043
3 -2.63558 -9.2028 -17.3941 -1.5556e+06 165214 592082 -43594.7 531111 -84777.9
3 0.0388225 -8.65307 -17.8124 1.00449e+06 -350351 -710548 -330036 918721 476961
3 -0.336822 -9.24161 -16.6358 -340904 -135624 -980636 -60897 577649 580247
3 1.29053 -8.06954 -17.9169 634808 -277478 -528925 -39803 967542 413587
3 2.16434 -8.07731 -16.8169 324352 -520446 3704.64 -251095 736535 431425
3 -7.9762 -6.46315 -18.6402 2.84888e+06 -523895 -647681 -1.45763e+06 2.60538e+06 -3.39837e+06
3 -6.88152 -7.33935 -17.6849 3.43477e+06 2.02272e+06 667841 -2.1068e+06 -586915 -426558
3 3.62116 -6.55192 -17.9724 189706 -355878 -286817 72500.5 154572 207285
3 3.30061 -7.28405 -16.8518 -56877.7 -178163 -122939 -4773.34 452538 159806
3 -8.53794 -5.19129 -18.5017 152159 32348.3 -2.54392e+06 -110670 112543 -1.40666e+06
3 -8.4918 -4.6219 -17.2651 -130637 -871282 -3.12032e+06 -54546 -698805 -300050
2 -1.44056 -4.27895 -18.3915 -241142 396145 -45026.2 -263741 984006 -246258
2 -2.36105 -4.26504 -17.3429 378752 -349577 -57782.6 -171909 542340 -840869
2 -0.0229453 -4.54149 -18.1484 426565 -93440.9 -459078 306436 -624748 420129
3 4.55141 -5.53744 -17.8614 -164413 186830 -542233 40059.5 47354.9 49563.1
3 5.06377 -5.12151 -16.6817 61388.4 12352.2 -282530 225249 -205942 -115320
3 -8.61379 -3.24457 -17.0848 142439 -614204 241797 162714 102817 -114692
3 -8.60391 -2.42411 -18.248 -11549.9 -255117 479742 -173019 10490.1 97977
2 -3.46707 -2.38073 -18.3689 276277 433947 -317603 -414023 188727 687658
2 -3.443 -3.33997 -17.324 -47992.6 596013 -430062 -10423.1 -662129 443877
2 1.97903 -3.18962 -18.5853 -979191 -732151 362656 -511765 -222642 -627662
2 2.4027 -3.39742 -17.226 -16734.7 -541478 -887712 239425 456183 708961
3 6.22114 -3.32889 -17.6861 92901.5 -7127.99 -642744 134937 -370294 -450445
3 6.90394 -2.14464 -17.5342 -40694.4 361444 -79223.9 -258192 -147637 -673457
3 -8.31718 -1.03214 -18.1783 144891 -267041 833641 3852.89 165894 -158753
3 -7.91362 -0.53505 -16.9489 -6955.16 -97408.2 937402 -165301 96433.5 -173272
2 -3.74888 -1.00025 -18.026 181169 190637 -158143 458551 176292 -964091
2 -2.96059 -0.157172 -18.8927 499934 -615933 541528 -277202 -210853 477177
2 2.85658 -1.17753 -17.8052 49003 -1.00076e+06 646821 -293270 475832 435566
2 0.277545 -0.595221 11.0821 -245194 217863 81996.2 984085 424037 -203345
3 7.04294 -1.30258 -18.6323 134987 404684 -77487.9 265787 -227780 -829360
3 -6.26351 -8.20214 -14.7144 -245170 -1.51784e+06 -466152 1.06225e+06 698364 -379497
3 -5.61388 -8.82982 -15.7681 -77566.8 56889.5 -542679 32831.3 2.29019e+06 -1.40695e+06
3 -4.29156 -9.35999 -15.721 173779 -55177.7 1.13044e+06 377872 -495715 489782
3 -1.66838 -9.40044 -16.3556 -628669 177722 292522 -262435 -165378 -173665
3 -2.05247 -9.68543 -15.035 -14627.1 -45379.1 141548 358715 -334757 338172
3 -3.36623 -9.41435 -14.5947 501456 318210 2.307e+06 -287516 48328.8 -16195.1
3 0.621084 -9.44057 -15.6418 -270917 -589328 -1.22723e+06 -648100 505784 851348
3 1.91029 -8.77618 -15.6517 -338811 -121617 169406 -445288 1.00253e+06 281182
3 2.69247 -8.69376 -14.4917 196072 2606.84 1.33222e+06 -67431.7 272003 -97163.9
3 -7.52981 -6.75341 -16.321 184197 -1.79165e+06 662157 422095 -385930 -575350
3 -6.96439 -7.10328 -15.0819 -597981 -1.96571e+06 1.66881e+06 1.109e+06 -659512 1.44767e+06
3 3.9681 -7.02492 -15.6524 184028 -143007 389406 194193 2099.19 6667.69
3 -7.90049 -5.42566 -16.3391 -666516 -1.67607e+06 -3.06747e+06 713637 -1.42083e+06 777696
3 -7.39415 -4.8759 -15.1962 482729 -2.8419e+06 -2.18847e+06 -357585 -245148 -1.83481e+06
2 -1.9205 -4.51604 -16.0018 -447745 4737.07 714001 686608 -236801 603994
2 0.410904 -4.78275 -16.8298 556429 -75426.2 -342511 -249844 -547860 -470376
2 -0.563331 -4.78759 -15.7321 -983157 563206 699985 14118.9 343665 362813
2 1.60943 -4.19829 -16.3523 -201093 344612 -486448 448107 1.06134e+06 47075.4
3 5.95801 -4.06414 -16.5576 -260201 424128 -417938 -24649.2 -174868 -226696
3 4.80223 -5.94091 -15.5646 -172148 210557 -115549 147287 -50458.7 -59015.9
3 -8.18474 -2.73558 -15.845 -26520.2 -883987 634053 -337108 -22362.2 -163435
3 -7.65243 -3.58153 -14.8733 155853 -1.70133e+06 -403666 43858.4 62087.1 -1.06457e+06
2 -3.69758 -2.96351 -15.9503 14009.2 -1.06049e+06 703066 521986 489865 -109538
2 -2.71812 -3.70468 -15.1279 291946 572836 -728018 -462429 -308422 -398011
2 2.97225 -2.17354 -16.7419 -605865 24504.4 -601709 7746.82 -659798 -809128
2 2.80452 -1.79027 -15.4121 25666.2 -5529.99 -320453 536036 193450 -1.0844e+06
2 1.45224 -3.793 -14.9676 -317416 209728 314068 -516230 -523260 -32791.8
3 6.41039 -3.67793 -15.3433 28284 -226857 -484665 95547.4 -117179 -126288
3 7.0089 -2.46245 -15.1509 -152566 -18041.1 -424302 -247280 -288006 83728.1
3 -7.87291 -1.38339 -15.8118 117658 -682272 689984 -255243 134488 -497464
2 -3.95829 -0.612621 -16.6466 -283398 328594 -450316 -67811.7 -610431 -651285
2 -3.94718 -1.61361 -15.5654 25245 -1.0022e+06 615955 -389235 540455 397696
2 2.59532 -0.388454 -15.0462 228941 281903 -207204 -381556 213894 677412
3 6.96284 -1.63505 -16.2597 154005 -860795 -360052 299364 -5905.27 -193973
3 7.04081 -0.263221 -16.0216 266716 -910238 2.00315e+06 -263776 -53568.9 32405.8
3 3.17352 -15.4928 -12.653 -43347.3 -2965.96 -167821 -28455.2 20172.3 -11470.5
3 -1.41357 -10.2278 -12.7554 -260676 -10993.6 -930929 218991 -220607 626667
3 1.23337 -10.2789 -13.423 -22108.8 -263978 -1.50527e+06 -310342 193627 1.14249e+06
3 -5.70498 -8.33577 -13.4125 -511792 -50371.5 -411333 -197865 -927070 936582
3 -4.52551 -8.29279 -12.671 -759734 157240 1.25951e+06 579294 204667 471227
3 -3.48224 -9.08407 -13.2053 -485565 -85933.4 2.41525e+06 697183 260008 649560
3 0.278285 -10.0077 -14.4289 162041 -212778 -1.96838e+06 306775 579322 1.08188e+06
3 -1.06199 -10.0159 -14.117 -179236 229502 -1.15651e+06 -314237 -183256 233810
3 2.35089 -9.44195 -13.3161 270634 537559 1.81374e+06 91794.7 627739 -212275
3 3.74073 -7.78789 -14.4922 16853.6 243499 203682 67176.7 -12463.2 -161595
3 4.54881 -7.57161 -13.3293 932614 909720 206888 848882 -278021 -270527
3 5.64017 -6.67244 -13.4008 708941 1.08885e+06 -367702 890950 148081 476557
3 -6.63839 -5.85144 -14.2738 -210711 1.06486e+06 -2.08032e+06 48020.7 -936730 -351492
3 -6.86418 -5.37999 -12.8322 157717 -424940 -1.06657e+06 362836 -15093.3 -89857.5
3 -6.65384 -4.00864 -12.6524 563007 -124110 894612 112742 409428 -841640
3 -5.04314 -5.62303 -14.0158 -489267 -680969 -400444 -234287 -418596 231219
3 -4.33958 -6.00686 -13.0275 -405636 -197410 -536398 86046.1 -192659 -347327
2 0.0952928 -4.17998 -14.6043 880092 -20522.2 -724458 459068 295698 -511752
3 5.6122 -5.70134 -14.4136 137072 -287574 -215203 49833.3 -87237.3 61077.3
3 6.42252 -4.60511 -14.3027 -313268 46103.4 -238223 -155712 -220223 40931
3 7.16419 -4.32144 -13.1556 242368 77341.3 -288167 145715 -106904 -250696
3 -7.04988 -3.14964 -13.6829 76165.8 -638666 110882 -632054 52024.2 -1.55444e+06
2 -2.08898 -3.05981 -14.0311 -268088 387665 221274 -894204 -53202.6 -127136
2 -0.662036 -3.31781 -13.7927 783958 -805597 213753 712892 3161.08 25362.4
2 -0.0550801 -2.09509 -13.3424 -1.05411e+06 993878 177729 80024.6 -48705.5 -103178
2 2.05349 -2.62783 -14.4808 502901 -624564 456560 -213611 -177970 429727
3 7.74843 -3.06403 -12.9613 -272423 414209 -513022 -217835 -501397 -115174
3 -6.67515 -1.82265 -13.6499 -155579 -559506 279611 -796610 -223923 -1.3817e+06
3 -7.17831 -0.956221 -14.6688 2060.97 108680 881228 -218437 -32214.2 -764640
2 -3.26832 -0.972632 -14.4268 237566 578690 -902337 479545 -470563 341806
2 -2.36572 -1.71922 -13.6243 -339093 398723 191924 1.05261e+06 -299334 147048
2 -1.09023 -1.11757 -13.2046 846911 -763812 173372 -477371 7093.5 83183.9
2 1.28963 -1.76032 -13.6089 -134352 988678 -579073 76431 561764 -235545
2 1.62022 -0.41466 -13.9749 369863 -839690 804047 479427 -289006 -412326
3 7.47317 -2.05088 -13.8968 304269 279184 -505091 150933 80213.6 -189304
3 7.58162 -0.643449 -13.6568 482635 918168 1.64042e+06 -397254 525118 -492722
3 2.67096 -13.1534 -11.5284 -16098.7 46539 7148.32 -38633.4 33377.4 -58013.9
3 2.98894 -14.3058 -12.1019 35536.5 59395 -64121.8 -24603.7 15971.9 -25639.9
3 0.739496 -11.1237 -12.4374 -1.33796e+06 -635009 -1.74857e+06 -39884.4 1.51703e+06 720910
3 -0.528025 -10.8987 -11.9386 -1.17697e+06 229119 -3.26947e+06 -58895.9 170116 -205544
3 -0.531745 -10.4949 -10.6381 1.23962e+06 32129.7 -4.19074e+06 -193749 1.20852e+06 -1.16307e+06
3 2.3653 -12.0694 -10.9051 472329 -528088 122466 426800 -373054 63919.6
3 1.88524 -10.7954 -10.4897 -59754.7 113826 1.32846e+06 -117607 -1.14022e+06 24139.9
3 -3.31006 -8.00332 -10.6126 758398 2.34043e+06 906755 -1.05265e+06 -135085 350628
3 -2.4875 -9.45902 -12.3048 -530630 522834 1.35973e+06 -143634 -242396 154195
3 -2.51209 -9.14611 -10.9313 1.35296e+06 1.40486e+06 1.80688e+06 -1.19645e+06 99523.7 177599
3 2.88077 -9.7142 -10.7834 372987 97444.9 1.08366e+06 -609881 -1.01125e+06 -898584
3 3.07951 -9.18607 -12.0749 1.42975e+06 1.30348e+06 2.06488e+06 1.24248e+06 -96057 -488345
3 4.30063 -8.38924 -12.1689 1.06103e+06 1.07215e+06 679500 859991 -30539.1 -168310
3 5.32893 -8.37172 -11.1347 578777 -237064 -225392 210346 671755 390657
3 -6.41625 -6.17091 -11.8401 -1.175e+06 80065.3 -235807 106341 -363747 972022
3 -4.20099 -7.50779 -11.5691 1.0899e+06 2.26796e+06 754098 -632995 108810 1.11889e+06
3 -4.8589 -6.04234 -11.4943 -231651 2.70347e+06 36621.9 -415709 -304436 209607
3 6.40023 -7.48442 -11.3025 -119721 -275528 -223574 -159596 577182 688335
3 6.47402 -6.45875 -12.2703 598553 491430 -67589.8 461103 416231 345640
3 -4.90879 -4.56167 -10.9648 701452 3.1545e+06 21788.3 -850459 88809.4 -286591
3 7.26678 -5.29191 -12.187 387175 1.07273e+06 496678 535090 116562 252534
3 8.34157 -5.14597 -11.2436 465288 418013 236088 134917 193221 14923.4
3 -5.6715 -3.64549 -11.7205 950794 719620 576882 -842285 647014 -689890
3 -5.54132 -2.29071 -11.5029 547676 526370 577007 -449645 618840 -376908
3 8.43586 -2.75036 -11.7817 42384.6 123776 -500577 188997 -427530 -289401
3 9.0278 -3.89117 -11.116 126455 215634 433889 239270 346746 723646
3 -6.16981 -1.38926 -12.4627 -225311 -832550 327886 -818109 -182164 -1.39585e+06
3 -6.26941 -0.0398918 -12.2509 -288241 -1.00899e+06 -933205 -747428 -501203 -1.08912e+06
3 8.21729 -0.291437 -12.4267 601926 883493 1.27914e+06 95023.8 726290 -220579
3 8.43162 -1.36155 -11.4227 176306 12988.7 760695 -207448 358302 -634333
3 0.686263 -10.5061 -9.72102 156916 852150 716149 460462 -342757 249200
3 -1.71851 -9.96306 -10.0838 -42125.1 692256 -866748 -417803 416768 -676790
3 -1.46228 -9.94886 -8.67823 583156 -1.35815e+06 -2.19989e+06 245426 1.48219e+06 -1.88442e+06
3 0.0464059 -10.0702 -8.44192 1.07397e+06 -127577 -158810 383453 -369783 -229600
3 3.89035 -9.50021 -9.78844 -1.21796e+06 -545691 358244 -875454 -410112 -771081
3 5.20032 -9.06401 -9.93638 -581148 -352830 -356782 -342995 247299 368784
3 6.37172 -9.41758 -9.23857 -269864 35511.3 -343459 88340.5 -764889 -537083
3 7.58008 -9.00398 -8.76838 -599142 -510038 200144 -512448 -61313.6 -274029
3 -3.28506 -7.44984 -9.27547 956505 -795807 138406 -666663 -480046 411264
3 -2.95078 -6.17552 -8.7387 -435963 -1.52989e+06 1.57827e+06 167566 376844 -398158
3 9.07569 -7.148 -9.58827 -29524.3 -375701 48776 -152125 408530 219091
3 8.76371 -8.37865 -8.98374 -466861 -640065 326623 -450917 215763 53887.3
3 -4.38379 -4.13421 -9.73474 270648 1.97902e+06 -12228.4 -346789 -251757 802895
3 -3.88579 -5.02278 -8.6818 13480.1 21599.5 -346285 1.12731e+06 152805 -81665.5
3 8.85371 -6.24838 -10.5269 234676 45023 -392941 358628 332240 758608
3 -4.53639 -2.72621 -9.38487 677882 1.54167e+06 707665 915304 464280 932136
3 10.1265 -3.84237 -10.3378 -310469 768472 -92364 119262 -210031 -225399
3 10.8541 -3.71205 -9.21018 -954.566 56146.7 29215.5 -83713.9 -9318.16 70348.9
3 11.5675 -3.24074 -8.19033 107567 79498.5 -70833.1 650.645 63892.8 -62192
3 -5.06609 -1.79913 -10.298 445800 28948 553054 27633.3 480198 345546
3 -5.23297 -0.455662 -10.1177 595696 -1.33424e+06 526810 -318381 498947 257993
3 8.46751 -0.903622 -10.0788 -61536.9 -818267 304073 -250653 -386389 -442407
3 -3.29516 -8.43154 -8.25318 -1.07188e+06 -835514 575341 1.18574e+06 83160 1.59197e+06
3 -2.07843 -9.04519 -7.83201 -1.44558e+06 -870138 -512068 1.17151e+06 485460 -1.02891e+06
3 0.197902 -9.27074 -7.29571 -553860 1.2264e+06 327341 -701936 -982398 385457
3 -0.99601 -8.43559 -7.13836 1.54083e+06 -952051 65389.6 -23030.3 157378 -385903
3 1.12516 -9.21596 -6.28614 -668623 46648.4 8222.87 -449353 -306505 140447
3 -1.78485 -6.23078 -7.92657 -1.03364e+06 1.19506e+06 108540 128916 -371966 439654
3 -1.00086 -7.00805 -7.03245 521571 -462486 365130 225827 51501.8 -296542
3 -4.40525 -4.76088 -7.33094 111542 -746828 -581052 -467584 179381 -774714
3 -4.65632 -3.41766 -7.03809 287536 -1.35962e+06 -53938.3 132630 173216 304446
3 -4.37749 -2.40432 -8.01937 408756 475908 713405 -308724 488374 714008
3 12.2201 -2.76108 -7.09216 131050 7726.64 -169732 85901.9 24056.7 -29050.9
3 -3.69101 -1.24548 -7.62632 510794 770902 1.08825e+06 -275692 612938 104814
2 -1.10478 -1.00296 11.121 686780 -835923 151055 -670954 -287449 -317702
3 -2.67581 -1.32809 -6.57242 759985 -435391 57626.8 -184955 -114988 -396749
3 12.4107 -1.75949 -6.20374 119094 72903.5 -84406 84094.2 63158.5 -5392.53
3 -0.175741 -6.4519 -6.08175 -409056 320258 55601.5 -727667 -119158 -364328
3 0.890397 -6.04719 -5.24116 720892 206896 437949 -64446 56970.8 -45490.5
3 1.82237 -8.28528 -5.55914 456388 -640515 -79879.1 -106978 -3696.58 -261577
3 1.87664 -7.05581 -4.8277 489391 259653 433542 -191628 49510.6 105000
3 3.24176 -7.94637 -2.96752 -355849 40647.1 -616197 378872 187549 163635
3 0.903127 -4.80667 -4.57288 169271 25907.9 -53365.4 -241479 11891.5 52427.9
3 0.114889 -3.80303 -5.01359 -228899 127500 -141254 344662 159239 59159.1
3 -2.18821 -0.187014 -5.87777 -1.70018e+06 -1.53025e+06 549166 705657 -28337.1 71723.1
3 12.0709 -0.862191 -5.24685 125779 129253 -76995 102868 -18321 -11454.8
3 2.61188 -6.9904 -3.64032 318024 -148943 -221047 -115367 68604.8 -45724.7
3 2.74003 -5.69382 -3.16874 -75548.5 -680846 -501148 360156 66072.6 -210019
3 1.6501 -4.8001 -3.35096 -850573 48346.9 -340735 -25027.2 36056.9 146249
2 -1.45363 -1.52278 5.6645 -1.15574e+06 595086 561664 51533.5 -199147 -372255
2 -0.496785 -0.638803 5.02379 865395 -409406 -400121 430225 -262245 640381
2 0.79747 -0.871833 5.63395 -504888 35054.7 490157 -820424 511248 -112672
2 -0.766133 -2.27904 6.68779 630984 -305468 -332766 -453482 634806 551155
2 -3.40392 -1.34442 7.16003 437631 -630375 191651 40316.9 -441401 822126
2 -4.20207 -0.197024 7.5187 -3662.23 850571 -866148 -125672 618305 -312768
2 -2.74997 -1.06077 5.91064 -362321 123830 229752 569929 414121 -772874
2 0.615554 -1.87547 6.66191 -202037 357109 -139567 609771 -845336 56471.1
2 -1.40766 -2.56111 7.91507 689961 159382 -863118 7069.53 684558 -360975
2 -2.75651 -2.08053 8.15605 -298852 298881 2840.32 -20670.7 -999144 318740
2 -0.677427 -2.4593 9.16346 -1.12252e+06 230827 882575 246785 -99524.8 198765
2 -2.85486 -1.67068 9.53669 -340613 -29167.5 413691 479822 858171 -252095
2 0.669919 -2.07375 9.12934 -515494 -337176 865386 -677517 160883 341262
2 2.09292 -0.243634 9.45785 56348.2 -573821 605461 -437443 -551520 -582935
2 1.31904 -1.77252 7.87226 464114 259030 -692658 152376 -530576 -718308
2 2.18285 -0.639794 8.07496 22306.7 198615 -163472 -132293 678952 820727
2 -3.6315 -0.563284 9.90275 405352 -1.11652e+06 718998 255239 339623 -29336.5
2 -1.57784 -1.90897 10.1579 755844 203001 -953469 -335114 -529567 -282342
1 -2.21595 -0.170129 18.184 -1.02259e+06 742868 71702.3 291574 418910 -337887
1 -0.817325 -0.207845 18.321 -828043 803003 -33587.2 -155225 -635390 -371847
1 -4.1937 -0.156924 19.4516 -312991 659864 -282703 -644236 646726 217452
1 -3.02036 -0.938222 19.1129 678349 -943836 260218 368433 -436676 407247
1 -2.38932 -1.69029 20.1216 427960 158205 -568983 192758 -925449 215918
1 -0.157687 -1.02276 19.3279 473066 -898883 448723 -464774 483153 296678
1 -0.951348 -1.76613 20.217 37422.7 184196 -187613 -213050 1.03391e+06 138405
1 1.00725 -0.286697 19.7806 -37526.9 625937 -542470 604589 -594394 355730
1 -4.73969 -0.178955 20.7435 394308 754768 -1.12679e+06 -308865 33282.6 -201512
1 -4.10481 -0.981028 21.7684 -123332 -734091 870126 584838 324597 -349445
1 -1.83502 -1.78502 22.3835 926157 222758 -1.12938e+06 -18268.3 199671 87133.3
1 -2.932 -1.70182 21.4497 -1.09724e+06 228294 860687 62366.6 457344 -108001
1 -0.595498 -1.83257 21.6135 -863076 225351 610912 -13540.8 -802930 -102530
1 0.533776 -1.12831 22.0572 -830.984 -710174 694322 -526572 -500718 -459002
1 1.35382 -0.353783 21.1366 369095 735295 -1.10006e+06 346734 252981 -150723
1 -4.20223 -0.248887 23.0154 68500.5 488913 -532476 21322.7 -611902 730807
1 -1.92315 -1.06975 23.5859 939415 -603611 -286455 40992.8 112301 -660479
1 -3.11345 -0.285795 23.8988 -886693 660713 313399 -442021 -557752 236143
1 0.420592 -0.368774 23.2892 -171316 479271 -288055 -138935 690356 681173
1 -0.761857 -0.336629 24.0566 -1.01608e+06 635385 482331 434234 293306 306699
1 -3.08897 -9.26419 29.8395 799178 39824.8 -858574 14855.4 -394713 477709
1 -0.428828 -8.59319 29.0709 -296895 808977 -636845 291348 -763858 -31215.8
1 -0.639209 -9.76648 29.9792 -223098 -642006 634999 -734334 184399 -271415
1 -3.52297 -6.8963 29.2482 -887740 811807 86006.3 -395838 336617 25681.7
1 -4.4432 -6.87056 30.2844 125398 887132 -1.02153e+06 -148611 367314 -76888.2
1 -2.80985 -8.13671 29.0598 833495 -994753 166362 -77926 -192019 250463
1 -1.4914 -7.80255 28.5887 -858145 667189 154454 706995 -46896 -163328
1 -1.38124 -6.30445 28.5178 107763 -161266 173892 -920965 91680.9 238811
1 0.657001 -7.84591 29.6837 445807 -844946 304846 -78540.4 355462 611105
1 0.806488 -6.44515 29.5439 150688 -600191 503653 619829 539698 -128400
1 -2.63811 -5.79529 28.9744 326695 -526915 197607 850089 -110747 -185258
1 -2.76684 -4.60934 29.7271 724443 100770 -738006 369916 -73141.1 -715026
1 -0.220826 -5.59826 28.9678 372988 287953 -495890 -626232 -504269 -401040
1 -0.272418 -4.36142 29.7502 -805243 282653 647325 584057 27874.8 413770
1 -1.56374 -3.87378 30.118 -711864 340985 252593 -192223 680422 478548
3 8.46388 -1.41518 54.9675 26276 -74406 187568 -152170 -3922.1 198493
3 8.73713 -0.716218 53.7759 66404.2 -104542 330881 80213.5 82173.1 299650
2 -3.04015 -0.465228 30.5142 -1.06548e+06 263905 784327 -25956.1 -494064 -220427
1 -2.24871 -10.4518 31.7236 -221215 90896.4 -24107.1 272702 -1.04129e+06 145998
1 -4.03124 -9.16964 30.9159 -1.07819e+06 135300 908187 352690 -273941 -197259
1 -3.50411 -9.85036 32.0761 391606 240505 -687169 -270263 721531 129846
1 -1.96251 -10.0928 30.3557 -812438 207566 424532 -259629 743901 -178833
1 0.383963 -9.72315 31.003 331747 60963.2 -687966 407993 -132269 782367
1 1.09478 -8.48816 30.836 -412605 199954 -31793.2 -495657 -512166 -736744
1 -4.7376 -7.94602 31.1607 -65291.2 -809920 861042 486943 -48479.5 -485120
1 1.74106 -7.77233 31.8406 52713 111123 -316519 125707 242491 -990345
1 1.90983 -6.37336 31.7338 298766 203000 -525654 -197896 -142059 889273
1 -4.47061 -5.66368 31.0879 212946 -863489 651567 51304.9 -292821 577917
1 -3.66141 -4.59865 30.8225 -442477 -319315 773512 -721816 -290345 134778
1 0.701772 -4.45425 30.8182 761046 -310599 -265191 -79947.5 384386 -706274
1 1.41926 -5.69613 30.6268 -483953 632759 -93675.9 -125043 -772576 369720
1 -3.1177 -3.83632 31.9042 128790 427223 -928838 316232 715048 190266
1 -1.81021 -3.39186 31.4995 24147 -559548 -75041.5 -228631 -801368 -533181
1 0.499938 -3.92209 32.0974 448181 278044 -591196 -282629 790456 105425
2 -5.39103 -0.448087 30.5309 -919529 294765 632606 -175968 697906 -142865
2 -4.20654 -0.762186 31.3235 853808 95774.4 -1.15482e+06 115550 -167839 326082
1 -1.25337 -10.424 32.7247 141319 -359609 43210.6 -357303 -791927 -566378
1 -3.73442 -9.35568 33.3909 696437 -331029 -315969 -73424 333854 -712647
1 -1.46857 -9.91513 34.0627 -709998 369676 297781 -253174 609655 509756
1 0.104129 -10.0232 32.3377 105560 512422 -862039 300006 687710 144726
1 0.689794 -9.27795 33.416 -491861 -390086 762510 -739747 -266675 167550
1 -4.47903 -8.11906 33.5475 -513162 655219 -60181.6 -114405 -778434 376276
1 -4.98982 -7.44737 32.4765 290285 236071 -476692 -184034 -153390 901184
1 1.48673 -8.15016 33.2135 205702 -918854 617673 13444.1 -291752 594086
1 1.4859 -6.93921 33.9879 150953 900501 -1.00225e+06 -175334 363494 -101789
1 -4.83413 -6.02102 32.4398 65482.9 177951 -269134 161483 248923 -982041
1 -4.29679 -5.25181 33.4797 -372683 258712 28245.3 -463180 -475674 -744785
1 -3.40695 -4.15793 33.2317 411054 133051 -728572 451612 -100113 811317
1 -2.3684 -4.20222 34.2457 -129303 -589108 641036 -706099 205422 -240538
1 0.0421562 -4.58437 34.2875 863462 64775.2 -838842 15661.6 -367360 464438
1 1.78372 -5.80222 33.0649 -22208.9 -797300 849925 456925 -17476.1 -531881
1 1.05422 -4.60747 33.2668 -1.01379e+06 150209 962617 341302 -220783 -241967
1 -0.804848 -3.5068 32.481 -208531 128489 -62305.5 307543 -1.03468e+06 174309
1 -1.08347 -3.85387 33.813 -683923 256546 414141 -235991 773911 -160580
2 -4.17491 -0.502654 32.7063 825574 -511889 -622596 129876 -41518.3 -714371
1 -2.73831 -9.3588 34.4316 -839688 223793 618923 569819 -25441.7 413701
1 -0.288887 -9.2015 34.4769 648519 57262 -748112 341620 -66844.2 -681349
1 -3.93504 -7.34858 34.6579 150404 -583170 509494 637496 542907 -109148
1 -2.8185 -8.1218 35.1517 363280 245355 -496443 -631930 -510564 -403696
1 -1.64391 -7.45694 35.5613 114919 -192501 175131 -925387 74105.8 229449
1 -0.357272 -7.98448 35.2053 352999 -500603 209145 854685 -138234 -191721
1 0.562723 -6.85071 35.0206 -859607 864246 101228 -407467 338034 2686.15
1 -3.8406 -5.94415 34.6591 496250 -811732 353101 -40976.6 388642 617790
1 -2.63464 -5.3009 35.1298 -233075 801425 -615426 337649 -743618 11016.9
1 -1.53658 -6.03044 35.653 -812774 636185 197931 709734 -40428.7 -149849
1 -0.171925 -5.64084 35.1974 890892 -965093 195076 -94098 -171457 249776
3 4.9623 -11.6759 36.8274 -673384 -253206 -267622 186890 -127210 155782
3 5.66802 -11.6269 37.9313 -229584 24676.7 -75249 126162 -32204 121230
3 6.62151 -11.3239 38.8446 -7319.1 68417.7 -38548.4 130857 10466.2 76099.3
3 7.30497 -10.9116 39.9787 452807 -127317 -185041 -514077 -101858 -222325
3 11.6037 -2.85594 40.1236 -413.716 -539143 -155225 -127766 -17915.3 280109
3 12.3825 -1.80058 39.7284 264150 -1.1291e+06 454505 106825 -383484 -101417
3 13.0252 -0.887304 40.58 -34147.7 4705.54 10040.3 134574 48351.6 -156106
3 8.07537 -10.3267 40.9684 416513 -593259 -18926.3 452386 -340932 -127810
3 9.47418 -10.4445 41.1503 -1.2908e+06 1.10287e+06 -255170 -392565 -320494 225514
3 11.9199 -10.5673 40.5454 -226116 208594 -341086 613169 -74846.6 -1954.34
3 7.5846 -9.14929 41.6578 3.26388e+06 -1.25669e+06 356135 1.32828e+06 -496987 -35105.4
3 8.48934 -8.02523 41.6682 -390563 104747 -43152.8 846900 519395 -706876
3 10.7957 -9.9145 41.0334 295423 -463343 310713 -233524 139047 -154581
3 10.9529 -8.60638 41.5885 813045 -333364 291204 179843 -187199 -90655.5
3 7.78266 -6.93623 42.3323 -1.08522e+06 -2.49675e+06 26756.2 79965.3 401185 309021
3 9.84494 -7.7116 41.3382 -134537 1.45557e+06 136247 730860 47873.5 242050
3 10.0031 -6.35773 40.9886 315311 590150 -59111.7 290733 173788 -289145
3 8.1607 -5.60781 42.2554 -764518 -1.10491e+06 -756629 440094 601125 -921270
3 9.32378 -5.2696 41.5281 -450969 1.38145e+06 184371 -197282 110961 263456
3 9.88424 -4.02184 41.7043 505466 1.94848e+06 140624 -488449 -113089 231219
3 10.6503 -3.60301 40.5965 -334452 218087 -477495 -366353 297826 426874
3 -1.68767 -1.87039 42.4933 -481068 -977013 696477 -412293 -167397 700083
3 -0.314057 -2.17057 42.3654 -951243 868455 -31490.3 97197.5 -102942 -123072
3 11.4017 -1.57812 42.6741 -317007 -334860 -641966 38803.6 320341 86148.4
3 12.4952 -0.839673 41.8182 -3391.66 713023 -198087 339355 185387 -547493
3 5.22247 -9.82479 44.5589 384426 489090 100540 -293202 -188452 179610
3 6.13563 -9.81563 43.604 354641 373854 45139.2 -1.05652e+06 -220244 328937
3 6.60054 -8.89623 42.7288 1.06311e+06 120693 622562 -1.83021e+06 -772062 701373
3 6.75813 -7.52449 43.1532 -946962 -304845 -308042 -195498 530226 -667359
3 6.31834 -6.6722 44.2074 126106 -185291 -609996 542077 -69671.4 -819975
3 12.1429 -8.28807 42.2766 -139387 482500 -142678 -430250 -120834 -268595
3 13.3881 -7.95421 42.7692 105676 1212.5 -138205 81174 50304.5 46385
3 14.6792 -8.01026 43.1299 -15750 -213050 -351616 73823.6 49357.3 7916.08
3 -0.302788 -4.90957 44.4391 -110783 467618 108083 -316630 508849 -284640
3 7.75228 -4.76624 43.3007 -129611 -2.67464e+06 -425339 412962 159257 -845729
3 6.77324 -5.28753 44.2569 -376559 695266 -595089 -501831 425555 986012
3 -2.49291 -2.95957 42.7881 -622733 -103806 -1.6332e+06 -1.73983e+06 1.11629e+06 780990
3 -2.81405 -3.28392 44.1128 -44998.2 1.82012e+06 -2.33869e+06 -824005 1.56213e+06 133465
3 0.481136 -4.01219 43.8926 314928 -100723 -103616 -46211.7 -140901 178002
3 0.506036 -3.03812 42.9631 157323 -150707 -168598 322497 -283426 -51023.9
3 8.72995 -3.91599 43.7822 102611 -2.05269e+06 -812905 -278137 -45305.5 -925460
3 9.73631 -3.35431 42.9036 283028 2.50694e+06 518840 -126324 -87973.6 446558
3 10.4426 -2.23044 43.3884 382431 2.03281e+06 286702 -334005 -164962 673154